
  ___ ___ ___ _ _ _  
 |   |   |_  | | | | 
 | | | | | . | | | | 
 |__ |  _|___|_____|  1.5.1
 |___|_|             

User:   efefer@mariya0704
Date:   Thu Mar 28 16:36:29 2019
Arch:   x86_64
Pid:    3373
Python: 3.6.7
gpaw:   /home/efefer/WORKS/GPAW/PYTHON3_PATH/gpaw-1.5.1/lib/gpaw
_gpaw:  /home/efefer/WORKS/GPAW/PYTHON3_PATH/gpaw-1.5.1/lib/
        _gpaw.cpython-36m-x86_64-linux-gnu.so
ase:    /home/efefer/WORKS/GPAW/PYTHON3_PATH/ase-3.17.0/lib/ase (version 3.17.0)
numpy:  /usr/lib/python3/dist-packages/numpy (version 1.13.3)
scipy:  /usr/lib/python3/dist-packages/scipy (version 0.19.1)
units:  Angstrom and eV
cores:  1

Input parameters:
  eigensolver: rmm-diis
  hund: True
  mode: {ecut: 340.0,
         gammacentered: False,
         name: pw}
  occupations: {fixmagmom: True,
                name: fermi-dirac,
                width: 0.0}
  xc: PBE

System changes: positions, numbers, cell, pbc, initial_charges, initial_magmoms 

Initialize ...

H-setup:
  name: Hydrogen
  id: d65de229564ff8ea4db303e23b6d1ecf
  Z: 1
  valence: 1
  core: 0
  charge: 0.0
  file: /home/efefer/WORKS/GPAW/gpaw-setups-0.9.11271/H.PBE.gz
  cutoffs: 0.48(comp), 0.85(filt), 0.53(core), lmax=2
  valence states:
                energy  radius
    1s(1.00)    -6.494   0.476
    *s          20.717   0.476
    *p           0.000   0.476

  Using partial waves for H as LCAO basis

Reference energy: -12.490162

Spin-polarized calculation.
Magnetic moment: 1.000000

Occupation numbers:
  Fixed magnetic moment
  Fermi-Dirac: width=0.0000 eV

Convergence criteria:
  Maximum total energy change: 0.0005 eV / electron
  Maximum integral of absolute density change: 0.0001 electrons
  Maximum integral of absolute eigenstate change: 4e-08 eV^2
  Maximum number of iterations: 333

Symmetries present (total): 1

  ( 1  0  0)
  ( 0  1  0)
  ( 0  0  1)

1 k-point (Gamma)
1 k-point in the irreducible part of the Brillouin zone
       k-points in crystal coordinates                weights
   0:     0.00000000    0.00000000    0.00000000          1/1

Wave functions: Plane wave expansion
  Cutoff energy: 340.000 eV
  Number of coefficients: 14243 (reduced to 7122)
  Pulay-stress correction: 0.000000 eV/Ang^3 (de/decut=0.000000)
  Using FFTW library
  ScaLapack parameters: grid=1x1, blocksize=None
  Wavefunction extrapolation:
    Improved wavefunction reuse through dual PAW basis 

Eigensolver
   RMM-DIIS eigensolver
       keep_htpsit: True
       DIIS iterations: 3
       Threshold for DIIS: 1.0e-16
       Limit lambda: False
       use_rayleigh: False
       trial_step: 0.1 

Densities:
  Coarse grid: 45*45*45 grid
  Fine grid: 90*90*90 grid
  Total Charge: 0.000000 

Density mixing:
  Method: sum
  Backend: pulay
  Linear mixing parameter: 0.05
  Mixing with 5 old densities
  Damping of long wave oscillations: 50 

Hamiltonian:
  XC and Coulomb potentials evaluated on a 90*90*90 grid
  Using the PBE Exchange-Correlation functional
 

XC parameters: PBE with 2 nearest neighbor stencil

Memory estimate:
  Process memory now: 94.38 MiB
  Calculator: 70.67 MiB
    Density: 49.11 MiB
      Arrays: 24.33 MiB
      Localized functions: 17.82 MiB
      Mixer: 6.95 MiB
    Hamiltonian: 18.44 MiB
      Arrays: 18.08 MiB
      XC: 0.00 MiB
      Poisson: 0.00 MiB
      vbar: 0.36 MiB
    Wavefunctions: 3.12 MiB
      Arrays psit_nG: 0.22 MiB
      Eigensolver: 0.65 MiB
      Projections: 0.00 MiB
      Projectors: 0.38 MiB
      PW-descriptor: 1.87 MiB

Total number of cores used: 1

Number of atoms: 1
Number of atomic orbitals: 1
Number of bands in calculation: 1
Bands to converge: occupied states only
Number of valence electrons: 1

... initialized

Initializing position-dependent things.

Density initialized from atomic densities
Creating initial wave functions:
  1 band from LCAO basis set

       .------------------------.  
      /|                        |  
     / |                        |  
    /  |                        |  
   /   |                        |  
  /    |                        |  
 *     |                        |  
 |     |                        |  
 |     |                        |  
 |     |        H               |  
 |     |                        |  
 |     |                        |  
 |     .------------------------.  
 |    /                        /   
 |   /                        /    
 |  /                        /     
 | /                        /      
 |/                        /       
 *------------------------*        

Positions:
   0 H      5.000000    5.000000    5.000000    ( 0.0000,  0.0000,  1.0000)

Unit cell:
           periodic     x           y           z      points  spacing
  1. axis:    no    10.000000    0.000000    0.000000    45     0.2222
  2. axis:    no     0.000000   10.000100    0.000000    45     0.2222
  3. axis:    no     0.000000    0.000000   10.000200    45     0.2222

  Lengths:  10.000000  10.000100  10.000200
  Angles:   90.000000  90.000000  90.000000

Effective grid spacing dv^(1/3) = 0.2222

                     log10-error:    total        iterations:
           time      wfs    density  energy       fermi  poisson  magmom
iter:   1  16:36:31  +4.26   +inf    -1.040750    0               +1.0000
iter:   2  16:36:32  -1.63  -1.13     3.193845    0               +1.0000
iter:   3  16:36:33  -1.52  -1.11     6.994251    0               +1.0000
iter:   4  16:36:34  -1.00  -0.82     0.474208    0               +1.0000
iter:   5  16:36:35  -2.50  -2.39    -1.061311    0               +1.0000
iter:   6  16:36:36  -3.10  -1.98    -1.070187    0               +1.0000
iter:   7  16:36:37  -4.13  -2.60    -1.072418    0               +1.0000
iter:   8  16:36:38  -4.99  -2.69    -1.070298    0               +1.0000
iter:   9  16:36:39  -7.07  -2.61    -1.070088    0               +1.0000
iter:  10  16:36:40  -4.20  -2.63    -1.075030    0               +1.0000
iter:  11  16:36:41  -5.39  -3.82    -1.071156    0               +1.0000
iter:  12  16:36:42  -7.64  -3.80    -1.067945    0               +1.0000
iter:  13  16:36:43  -9.51  -3.81    -1.067890    0               +1.0000
iter:  14  16:36:44  -6.40  -3.84    -1.076175    0               +1.0000
iter:  15  16:36:44  -7.53  -4.15    -1.076141    0               +1.0000
iter:  16  16:36:45  -7.36  -4.36    -1.076230    0               +1.0000
iter:  17  16:36:46  -7.61  -5.38    -1.076104    0               +1.0000

Converged after 17 iterations.

Dipole moment: (-0.000000, 0.000001, 0.000001) |e|*Ang

Total magnetic moment: (0.000000, 0.000000, 1.000000)
Local magnetic moments:
   0 H  ( 0.000000,  0.000000,  0.262477)

Energy contributions relative to reference atoms: (reference = -12.490162)

Kinetic:         +1.082897
Potential:       -0.667908
External:        +0.000000
XC:              -1.488659
Entropy (-ST):   +0.000000
Local:           -0.002434
--------------------------
Free energy:     -1.076104
Extrapolated:    -1.076104

Spin contamination: 0.000004 electrons
                   Up                     Down
 Band  Eigenvalues  Occupancy  Eigenvalues  Occupancy
    0     -7.54982    1.00000      0.05994    0.00000

Writing to H.gpw (mode='')

