
  ___ ___ ___ _ _ _  
 |   |   |_  | | | | 
 | | | | | . | | | | 
 |__ |  _|___|_____|  1.5.1
 |___|_|             

User:   efefer@mariya0704
Date:   Thu Mar 28 16:36:46 2019
Arch:   x86_64
Pid:    3373
Python: 3.6.7
gpaw:   /home/efefer/WORKS/GPAW/PYTHON3_PATH/gpaw-1.5.1/lib/gpaw
_gpaw:  /home/efefer/WORKS/GPAW/PYTHON3_PATH/gpaw-1.5.1/lib/
        _gpaw.cpython-36m-x86_64-linux-gnu.so
ase:    /home/efefer/WORKS/GPAW/PYTHON3_PATH/ase-3.17.0/lib/ase (version 3.17.0)
numpy:  /usr/lib/python3/dist-packages/numpy (version 1.13.3)
scipy:  /usr/lib/python3/dist-packages/scipy (version 0.19.1)
units:  Angstrom and eV
cores:  1

Input parameters:
  hund: False

System changes: positions, numbers, cell, initial_magmoms, initial_charges 

Initialize ...

H-setup:
  name: Hydrogen
  id: d65de229564ff8ea4db303e23b6d1ecf
  Z: 1
  valence: 1
  core: 0
  charge: 0.0
  file: /home/efefer/WORKS/GPAW/gpaw-setups-0.9.11271/H.PBE.gz
  cutoffs: 0.48(comp), 0.85(filt), 0.53(core), lmax=2
  valence states:
                energy  radius
    1s(1.00)    -6.494   0.476
    *s          20.717   0.476
    *p           0.000   0.476

  Using partial waves for H as LCAO basis

Reference energy: -24.980324

Spin-paired calculation

Occupation numbers:
  Fixed magnetic moment
  Fermi-Dirac: width=0.0000 eV

Convergence criteria:
  Maximum total energy change: 0.0005 eV / electron
  Maximum integral of absolute density change: 0.0001 electrons
  Maximum integral of absolute eigenstate change: 4e-08 eV^2
  Maximum number of iterations: 333

Symmetries present (total): 1

  ( 1  0  0)
  ( 0  1  0)
  ( 0  0  1)

1 k-point (Gamma)
1 k-point in the irreducible part of the Brillouin zone
       k-points in crystal coordinates                weights
   0:     0.00000000    0.00000000    0.00000000          1/1

Wave functions: Plane wave expansion
  Cutoff energy: 340.000 eV
  Number of coefficients: 14243 (reduced to 7122)
  Pulay-stress correction: 0.000000 eV/Ang^3 (de/decut=0.000000)
  Using FFTW library
  ScaLapack parameters: grid=1x1, blocksize=None
  Wavefunction extrapolation:
    Improved wavefunction reuse through dual PAW basis 

Eigensolver
   RMM-DIIS eigensolver
       keep_htpsit: True
       DIIS iterations: 3
       Threshold for DIIS: 1.0e-16
       Limit lambda: False
       use_rayleigh: False
       trial_step: 0.1 

Densities:
  Coarse grid: 45*45*45 grid
  Fine grid: 90*90*90 grid
  Total Charge: 0.000000 

Density mixing:
  Method: separate
  Backend: pulay
  Linear mixing parameter: 0.05
  Mixing with 5 old densities
  Damping of long wave oscillations: 50 

Hamiltonian:
  XC and Coulomb potentials evaluated on a 90*90*90 grid
  Using the PBE Exchange-Correlation functional
 

XC parameters: PBE with 2 nearest neighbor stencil

Memory estimate:
  Process memory now: 236.99 MiB
  Calculator: 58.26 MiB
    Density: 42.85 MiB
      Arrays: 18.08 MiB
      Localized functions: 17.82 MiB
      Mixer: 6.95 MiB
    Hamiltonian: 12.18 MiB
      Arrays: 11.82 MiB
      XC: 0.00 MiB
      Poisson: 0.00 MiB
      vbar: 0.36 MiB
    Wavefunctions: 3.23 MiB
      Arrays psit_nG: 0.22 MiB
      Eigensolver: 0.76 MiB
      Projections: 0.00 MiB
      Projectors: 0.38 MiB
      PW-descriptor: 1.87 MiB

Total number of cores used: 1

Number of atoms: 2
Number of atomic orbitals: 2
Number of bands in calculation: 2
Bands to converge: occupied states only
Number of valence electrons: 2

... initialized

Initializing position-dependent things.

Density initialized from atomic densities
Creating initial wave functions:
  2 bands from LCAO basis set

       .------------------------.  
      /|                        |  
     / |                        |  
    /  |                        |  
   /   |                        |  
  /    |                        |  
 *     |                        |  
 |     |                        |  
 |     |                        |  
 |     |        HH              |  
 |     |                        |  
 |     |                        |  
 |     .------------------------.  
 |    /                        /   
 |   /                        /    
 |  /                        /     
 | /                        /      
 |/                        /       
 *------------------------*        

Positions:
   0 H      4.630000    5.000000    5.000000    ( 0.0000,  0.0000,  0.0000)
   1 H      5.370000    5.000000    5.000000    ( 0.0000,  0.0000,  0.0000)

Unit cell:
           periodic     x           y           z      points  spacing
  1. axis:    no    10.000000    0.000000    0.000000    45     0.2222
  2. axis:    no     0.000000   10.000000    0.000000    45     0.2222
  3. axis:    no     0.000000    0.000000   10.000000    45     0.2222

  Lengths:  10.000000  10.000000  10.000000
  Angles:   90.000000  90.000000  90.000000

Effective grid spacing dv^(1/3) = 0.2222

                     log10-error:    total        iterations:
           time      wfs    density  energy       fermi  poisson
iter:   1  16:36:47  +2.13   +inf    -4.778726    0             
iter:   2  16:36:48  +0.02  -0.39    -7.165507    0             
iter:   3  16:36:48  -0.02  -0.43    -6.603898    0             
iter:   4  16:36:49  -0.97  -1.07    -6.638664    0             
iter:   5  16:36:49  -3.01  -1.88    -6.647001    0             
iter:   6  16:36:49  -2.67  -1.85    -6.647331    0             
iter:   7  16:36:50  -3.19  -2.16    -6.647245    0             
iter:   8  16:36:50  -5.34  -3.51    -6.647301    0             
iter:   9  16:36:51  -5.10  -3.26    -6.647300    0             
iter:  10  16:36:51  -6.10  -3.63    -6.647301    0             
iter:  11  16:36:52  -8.51  -5.03    -6.647301    0             

Converged after 11 iterations.

Dipole moment: (-0.000000, 0.000000, 0.000000) |e|*Ang

Energy contributions relative to reference atoms: (reference = -24.980324)

Kinetic:         +6.251267
Potential:       -7.836485
External:        +0.000000
XC:              -5.057594
Entropy (-ST):   +0.000000
Local:           -0.004488
--------------------------
Free energy:     -6.647301
Extrapolated:    -6.647301

Fermi levels: inf, -inf

 Band  Eigenvalues  Occupancy
    0    -10.33284    2.00000
    1      0.40914    0.00000

Writing to H2.gpw (mode='')

Timing:                              incl.     excl.
-----------------------------------------------------------
Hamiltonian:                         1.178     0.004   0.0% |
 Atomic:                             0.052     0.001   0.0% |
  XC Correction:                     0.051     0.051   0.2% |
 Calculate atomic Hamiltonians:      0.020     0.020   0.1% |
 Communicate:                        0.000     0.000   0.0% |
 Initialize Hamiltonian:             0.001     0.001   0.0% |
 Poisson:                            0.005     0.005   0.0% |
 XC 3D grid:                         1.096     1.096   4.8% |-|
LCAO initialization:                 0.058     0.006   0.0% |
 LCAO eigensolver:                   0.008     0.000   0.0% |
  Calculate projections:             0.000     0.000   0.0% |
  DenseAtomicCorrection:             0.000     0.000   0.0% |
  Distribute overlap matrix:         0.000     0.000   0.0% |
  Orbital Layouts:                   0.007     0.007   0.0% |
  Potential matrix:                  0.001     0.001   0.0% |
 LCAO to grid:                       0.004     0.004   0.0% |
 Set positions (LCAO WFS):           0.040     0.000   0.0% |
  Basic WFS set positions:           0.000     0.000   0.0% |
  Basis functions set positions:     0.000     0.000   0.0% |
  P tci:                             0.037     0.037   0.2% |
  ST tci:                            0.000     0.000   0.0% |
  mktci:                             0.001     0.001   0.0% |
PWDescriptor:                        0.169     0.169   0.7% |
SCF-cycle:                          19.247     0.007   0.0% |
 Density:                            0.863     0.000   0.0% |
  Atomic density matrices:           0.007     0.007   0.0% |
  Mix:                               0.803     0.803   3.5% ||
  Multipole moments:                 0.002     0.002   0.0% |
  Pseudo density:                    0.051     0.051   0.2% |
   Symmetrize density:               0.000     0.000   0.0% |
 Hamiltonian:                       17.881     0.050   0.2% |
  Atomic:                            0.673     0.007   0.0% |
   XC Correction:                    0.666     0.666   2.9% ||
  Calculate atomic Hamiltonians:     0.236     0.236   1.0% |
  Communicate:                       0.000     0.000   0.0% |
  Poisson:                           0.058     0.058   0.3% |
  XC 3D grid:                       16.864    16.864  74.4% |-----------------------------|
 Orthonormalize:                     0.037     0.002   0.0% |
  calc_s_matrix:                     0.006     0.006   0.0% |
  inverse-cholesky:                  0.011     0.011   0.1% |
  projections:                       0.015     0.015   0.1% |
  rotate_psi_s:                      0.002     0.002   0.0% |
 RMM-DIIS:                           0.311     0.011   0.0% |
  Apply H:                           0.088     0.087   0.4% |
   HMM T:                            0.001     0.001   0.0% |
  Calculate residuals:               0.047     0.047   0.2% |
  DIIS step:                         0.132     0.003   0.0% |
   Calculate residuals:              0.114     0.029   0.1% |
    Apply H:                         0.086     0.084   0.4% |
     HMM T:                          0.001     0.001   0.0% |
   Construct matrix:                 0.008     0.008   0.0% |
   Linear solve:                     0.002     0.002   0.0% |
   Update trial vectors:             0.004     0.004   0.0% |
   precondition:                     0.002     0.002   0.0% |
  Find lambda:                       0.007     0.007   0.0% |
  Update psi:                        0.002     0.002   0.0% |
  precondition:                      0.009     0.009   0.0% |
  projections:                       0.015     0.015   0.1% |
 Subspace diag:                      0.148     0.002   0.0% |
  calc_h_matrix:                     0.091     0.007   0.0% |
   Apply H:                          0.084     0.082   0.4% |
    HMM T:                           0.002     0.002   0.0% |
  diagonalize:                       0.051     0.051   0.2% |
  rotate_psi:                        0.004     0.004   0.0% |
Set symmetry:                        0.001     0.001   0.0% |
Other:                               2.017     2.017   8.9% |---|
-----------------------------------------------------------
Total:                                        22.670 100.0%

Date: Thu Mar 28 16:36:52 2019
