
  ___ ___ ___ _ _ _  
 |   |   |_  | | | | 
 | | | | | . | | | | 
 |__ |  _|___|_____|  1.3.0
 |___|_|             

User:   efefer@efefer-X301A
Date:   Wed Apr 11 00:27:38 2018
Arch:   x86_64
Pid:    16222
Python: 3.6.1
gpaw:   /home/efefer/mysoftwares/anaconda3/lib/python3.6/site-packages/gpaw
_gpaw:  /home/efefer/mysoftwares/anaconda3/lib/python3.6/site-packages/
       _gpaw.cpython-36m-x86_64-linux-gnu.so
ase:    /home/efefer/mysoftwares/anaconda3/lib/python3.6/site-packages/ase (version 3.13.0)
numpy:  /home/efefer/mysoftwares/anaconda3/lib/python3.6/site-packages/numpy (version 1.12.1)
scipy:  /home/efefer/mysoftwares/anaconda3/lib/python3.6/site-packages/scipy (version 1.0.0)
units:  Angstrom and eV
cores:  1

Input parameters:
  hund: False

System changes: positions, numbers, cell, initial_magmoms, initial_charges 

Initialize ...

H-setup:
  name: Hydrogen
  id: d65de229564ff8ea4db303e23b6d1ecf
  Z: 1
  valence: 1
  core: 0
  charge: 0.0
  file: /home/efefer/WORKS/GPAW/gpaw-setups-0.9.11271/H.PBE.gz
  cutoffs: 0.48(comp), 0.85(filt), 0.53(core), lmax=2
  valence states:
                energy  radius
    1s(1.00)    -6.494   0.476
    *s          20.717   0.476
    *p           0.000   0.476

  Using partial waves for H as LCAO basis

Reference energy: -24.980324

Spin-paired calculation

Occupation numbers:
  Fixed magnetic moment
  Fermi-Dirac: width=0.0000 eV

Convergence criteria:
  Maximum total energy change: 0.0005 eV / electron
  Maximum integral of absolute density change: 0.0001 electrons
  Maximum integral of absolute eigenstate change: 4e-08 eV^2
  Maximum number of iterations: 333

Symmetries present (total): 1

  ( 1  0  0)
  ( 0  1  0)
  ( 0  0  1)

1 k-point (Gamma)
1 k-point in the irreducible part of the Brillouin zone
       k-points in crystal coordinates                weights
   0:     0.00000000    0.00000000    0.00000000          1/1

Wave functions: Plane wave expansion
  Cutoff energy: 340.000 eV
  Number of coefficients: 14243 (reduced to 7122)
  Using FFTW library
  Eigensolver: None  MatrixOperator buffer_size: default value or 
                              see value of nblock in input file
Diagonalizer layout: Serial LAPACKOrthonormalizer layout: Serial LAPACK 

RMM-DIIS eigensolver
       keep_htpsit: True
       Block size: 10
       DIIS iterations: 3
       Threshold for DIIS: 1.0e-16
       Limit lambda: False
       use_rayleigh: False
       trial_step: 0.1 

Densities:
  Coarse grid: 45*45*45 grid
  Fine grid: 90*90*90 grid
  Total Charge: 0.000000 

Density mixing:
  Method: separate
  Backend: pulay
  Linear mixing parameter: 0.05
  Mixing with 5 old densities
  Damping of long wave oscillations: 50 

Hamiltonian:
  XC and Coulomb potentials evaluated on a 90*90*90 grid
  Using the PBE Exchange-Correlation functional
 

Memory estimate:
  Process memory now: 228.42 MiB
  Calculator: 58.46 MiB
    Density: 42.85 MiB
      Arrays: 18.08 MiB
      Localized functions: 17.82 MiB
      Mixer: 6.95 MiB
    Hamiltonian: 12.18 MiB
      Arrays: 11.82 MiB
      XC: 0.00 MiB
      Poisson: 0.00 MiB
      vbar: 0.36 MiB
    Wavefunctions: 3.42 MiB
      Arrays psit_nG: 0.22 MiB
      Eigensolver: 0.76 MiB
      Projections: 0.00 MiB
      Projectors: 0.38 MiB
      Overlap op: 0.22 MiB
      PW-descriptor: 1.84 MiB

Total number of cores used: 1

Number of atoms: 2
Number of atomic orbitals: 2
Number of bands in calculation: 2
Bands to converge: occupied states only
Number of valence electrons: 2

... initialized

Initializing position-dependent things.

Density initialized from atomic densities
Creating initial wave functions:
  2 bands from LCAO basis set

       .------------------------.  
      /|                        |  
     / |                        |  
    /  |                        |  
   /   |                        |  
  /    |                        |  
 *     |                        |  
 |     |                        |  
 |     |                        |  
 |     |        HH              |  
 |     |                        |  
 |     |                        |  
 |     .------------------------.  
 |    /                        /   
 |   /                        /    
 |  /                        /     
 | /                        /      
 |/                        /       
 *------------------------*        

Positions:
   0 H      4.630000    5.000000    5.000000
   1 H      5.370000    5.000000    5.000000

Unit cell:
           periodic     x           y           z      points  spacing
  1. axis:    no    10.000000    0.000000    0.000000    45     0.2222
  2. axis:    no     0.000000   10.000000    0.000000    45     0.2222
  3. axis:    no     0.000000    0.000000   10.000000    45     0.2222

  Lengths:  10.000000  10.000000  10.000000
  Angles:   90.000000  90.000000  90.000000

Effective grid spacing dv^(1/3) = 0.2222

                     log10-error:    total        iterations:
           time      wfs    density  energy       fermi  poisson
iter:   1  00:27:41  +2.13   +inf    -4.775785    0             
iter:   2  00:27:41  +0.03   +inf    -7.235096    0             
iter:   3  00:27:41  -2.67   +inf    -7.280687    0             
iter:   4  00:27:43  -2.28  -0.41    -7.207959    0             
iter:   5  00:27:45  +0.26  -0.43    -6.498351    0             
iter:   6  00:27:46  -1.27  -1.67    -6.659568    0             
iter:   7  00:27:48  -1.79  -1.13    -6.646107    0             
iter:   8  00:27:49  -1.88  -1.39    -6.639634    0             
iter:   9  00:27:51  -2.89  -1.99    -6.640094    0             
iter:  10  00:27:53  -4.16  -2.68    -6.640141    0             
iter:  11  00:27:54  -3.77  -2.36    -6.640172    0             
iter:  12  00:27:56  -6.15  -3.89    -6.640181    0             
iter:  13  00:27:58  -6.18  -4.00    -6.640181    0             
iter:  14  00:27:59  -8.64  -3.88    -6.640181    0             
iter:  15  00:28:01  -6.21  -3.86    -6.640181    0             
iter:  16  00:28:02  -8.76  -4.22    -6.640181    0             

Converged after 16 iterations.

Dipole moment: (0.000000, 0.000000, -0.000000) |e|*Ang

Energy contributions relative to reference atoms: (reference = -24.980324)

Kinetic:         +6.236185
Potential:       -7.824690
External:        +0.000000
XC:              -5.047103
Entropy (-ST):   +0.000000
Local:           -0.004574
--------------------------
Free energy:     -6.640181
Extrapolated:    -6.640181

Fermi levels: inf, -inf

 Band  Eigenvalues  Occupancy
    0    -10.33522    2.00000
    1      0.40395    0.00000

Writing to H2.gpw (mode='')

Timing:                              incl.     excl.
-----------------------------------------------------------
Hamiltonian:                         3.308     0.011   0.0% |
 Atomic:                             0.146     0.002   0.0% |
  XC Correction:                     0.144     0.144   0.2% |
 Calculate atomic Hamiltonians:      0.399     0.399   0.5% |
 Communicate:                        0.000     0.000   0.0% |
 Initialize Hamiltonian:             0.003     0.003   0.0% |
 Poisson:                            0.017     0.017   0.0% |
 XC 3D grid:                         2.732     2.732   3.4% ||
LCAO initialization:                 0.288     0.018   0.0% |
 LCAO eigensolver:                   0.096     0.001   0.0% |
  Calculate projections:             0.000     0.000   0.0% |
  DenseAtomicCorrection:             0.001     0.001   0.0% |
  Distribute overlap matrix:         0.000     0.000   0.0% |
  Orbital Layouts:                   0.090     0.090   0.1% |
  Potential matrix:                  0.003     0.003   0.0% |
 LCAO to grid:                       0.021     0.021   0.0% |
 Set positions (LCAO WFS):           0.153     0.000   0.0% |
  Basic WFS set positions:           0.001     0.001   0.0% |
  Basis functions set positions:     0.000     0.000   0.0% |
  TCI: Calculate S, T, P:            0.152     0.152   0.2% |
PWDescriptor:                        0.163     0.163   0.2% |
SCF-cycle:                          73.048     0.018   0.0% |
 Density:                            8.045     0.001   0.0% |
  Atomic density matrices:           0.045     0.045   0.1% |
  Mix:                               7.761     7.761   9.5% |---|
  Multipole moments:                 0.007     0.007   0.0% |
  Pseudo density:                    0.230     0.229   0.3% |
   Symmetrize density:               0.001     0.001   0.0% |
 Hamiltonian:                       62.244     0.162   0.2% |
  Atomic:                            2.440     0.037   0.0% |
   XC Correction:                    2.404     2.404   3.0% ||
  Calculate atomic Hamiltonians:     5.870     5.870   7.2% |--|
  Communicate:                       0.000     0.000   0.0% |
  Poisson:                           0.216     0.216   0.3% |
  XC 3D grid:                       53.556    53.556  65.8% |-------------------------|
 Orthonormalize:                     0.240     0.004   0.0% |
  Band Layouts:                      0.014     0.001   0.0% |
   Inverse Cholesky:                 0.014     0.014   0.0% |
  calc_s_matrix:                     0.024     0.024   0.0% |
  projections:                       0.187     0.187   0.2% |
  rotate_psi:                        0.011     0.011   0.0% |
 RMM-DIIS:                           2.071     0.413   0.5% |
  Calculate residuals:               0.363     0.363   0.4% |
  DIIS step:                         0.889     0.016   0.0% |
   Calculate residuals:              0.735     0.735   0.9% |
   Construct matrix:                 0.022     0.022   0.0% |
   Linear solve:                     0.006     0.006   0.0% |
   Update trial vectors:             0.015     0.015   0.0% |
   precondition:                     0.095     0.095   0.1% |
  Find lambda:                       0.023     0.023   0.0% |
  Update psi:                        0.009     0.009   0.0% |
  precondition:                      0.200     0.200   0.2% |
  projections:                       0.175     0.175   0.2% |
 Subspace diag:                      0.430     0.006   0.0% |
  Band Layouts:                      0.004     0.001   0.0% |
   Diagonalize:                      0.001     0.001   0.0% |
   Distribute results:               0.001     0.001   0.0% |
  calc_h_matrix:                     0.400     0.400   0.5% |
  rotate_psi:                        0.019     0.019   0.0% |
Set symmetry:                        0.001     0.001   0.0% |
Other:                               4.535     4.535   5.6% |-|
-----------------------------------------------------------
Total:                                        81.342 100.0%

Memory usage: 228.42 MiB
Date: Wed Apr 11 00:28:02 2018
