
  ___ ___ ___ _ _ _  
 |   |   |_  | | | | 
 | | | | | . | | | | 
 |__ |  _|___|_____|  1.3.0
 |___|_|             

User:   efefer@efefer-X301A
Date:   Thu May 17 22:52:03 2018
Arch:   x86_64
Pid:    12740
Python: 3.6.5
gpaw:   /home/efefer/mysoftwares/anaconda3/lib/python3.6/site-packages/gpaw
_gpaw:  /home/efefer/mysoftwares/anaconda3/lib/python3.6/site-packages/
       _gpaw.cpython-36m-x86_64-linux-gnu.so
ase:    /home/efefer/mysoftwares/anaconda3/lib/python3.6/site-packages/ase (version 3.13.0)
numpy:  /home/efefer/mysoftwares/anaconda3/lib/python3.6/site-packages/numpy (version 1.14.2)
scipy:  /home/efefer/mysoftwares/anaconda3/lib/python3.6/site-packages/scipy (version 1.0.0)
units:  Angstrom and eV
cores:  1

Input parameters:
  eigensolver: {name: dav,
                niter: 3}
  mixer: {backend: pulay,
          beta: 0.02,
          method: separate,
          nmaxold: 1,
          weight: 100}
  occupations: {name: fermi-dirac,
                width: 0.01}
  xc: PBE

System changes: positions, numbers, cell, pbc, initial_charges, initial_magmoms 

Initialize ...

Ni-setup:
  name: Nickel
  id: 0d9f38a9d6e76a2886f07bb4381f212b
  Z: 28
  valence: 16
  core: 12
  charge: 0.0
  file: /home/efefer/WORKS/GPAW/gpaw-setups-0.9.11271/Ni.PBE
  cutoffs: 1.15(comp), 2.14(filt), 1.98(core), lmax=2
  valence states:
                energy  radius
    4s(2.00)    -5.642   1.164
    3p(6.00)   -71.394   1.207
    4p(0.00)    -1.226   1.207
    3d(8.00)    -8.875   1.138
    *s          21.570   1.164
    *d          18.337   1.138

  Using partial waves for Ni as LCAO basis

Reference energy: -82735.996895

Spin-polarized calculation.
Magnetic moment:  1.000000

Occupation numbers:
  Fermi-Dirac: width=0.0100 eV

Convergence criteria:
  Maximum total energy change: 0.0005 eV / electron
  Maximum integral of absolute density change: 0.0001 electrons
  Maximum integral of absolute eigenstate change: 4e-08 eV^2
  Maximum number of iterations: 333

Symmetries present (total): 1

  ( 1  0  0)
  ( 0  1  0)
  ( 0  0  1)

1 k-point (Gamma)
1 k-point in the irreducible part of the Brillouin zone
       k-points in crystal coordinates                weights
   0:     0.00000000    0.00000000    0.00000000          1/1

Wave functions: Uniform real-space grid
  Kinetic energy operator: 6*3+1=19 point O(h^6) finite-difference Laplacian
  Eigensolver: None  MatrixOperator buffer_size: default value or 
                              see value of nblock in input file
Diagonalizer layout: Serial LAPACKOrthonormalizer layout: Serial LAPACK 

Davidson(niter=3, smin=None, normalize=True) 

Densities:
  Coarse grid: 48*52*52 grid
  Fine grid: 96*104*104 grid
  Total Charge: 0.000000 

Density mixing:
  Method: separate
  Backend: pulay
  Linear mixing parameter: 0.02
  Mixing with 1 old densities
  Damping of long wave oscillations: 100 

Hamiltonian:
  XC and Coulomb potentials evaluated on a 96*104*104 grid
  Using the PBE Exchange-Correlation functional
  Interpolation: tri-quintic (5. degree polynomial)
  Poisson solver: Jacobi solver with 4 multi-grid levels
    Coarsest grid: 12 x 13 x 13 points
    Stencil: 6*3+1=19 point O(h^6) finite-difference Laplacian
    Max iterations: 1000
    Tolerance: 2.000000e-10 

Memory estimate:
  Process memory now: 54.16 MiB
  Calculator: 185.67 MiB
    Density: 45.74 MiB
      Arrays: 33.56 MiB
      Localized functions: 8.46 MiB
      Mixer: 3.73 MiB
    Hamiltonian: 44.21 MiB
      Arrays: 24.93 MiB
      XC: 0.00 MiB
      Poisson: 18.62 MiB
      vbar: 0.65 MiB
    Wavefunctions: 95.73 MiB
      Arrays psit_nG: 44.77 MiB
      Eigensolver: 27.09 MiB
      Projections: 0.01 MiB
      Projectors: 1.46 MiB
      Overlap op: 22.39 MiB

Total number of cores used: 1

Number of atoms: 2
Number of atomic orbitals: 24
Number of bands in calculation: 24
Bands to converge: occupied states only
Number of valence electrons: 32

... initialized

Initializing position-dependent things.

Density initialized from atomic densities
Creating initial wave functions:
  24 bands from LCAO basis set

       .------------------------.  
      /|                        |  
     / |                        |  
    /  |                        |  
   /   |                        |  
  /    |                        |  
 *     |                        |  
 |     |                        |  
 |     |                        |  
 |     |      Ni   Ni           |  
 |     |                        |  
 |     |                        |  
 |     .------------------------.  
 |    /                        /   
 |   /                        /    
 |  /                        /     
 | /                        /      
 |/                        /       
 *------------------------*        

Positions:
   0 Ni     4.000000    5.000050    5.000100
   1 Ni     6.000000    5.000050    5.000100

Unit cell:
           periodic     x           y           z      points  spacing
  1. axis:    no    10.000000    0.000000    0.000000    48     0.2083
  2. axis:    no     0.000000   10.000100    0.000000    52     0.1923
  3. axis:    no     0.000000    0.000000   10.000200    52     0.1923

  Lengths:  10.000000  10.000100  10.000200
  Angles:   90.000000  90.000000  90.000000

Effective grid spacing dv^(1/3) = 0.1975

                     log10-error:    total        iterations:
           time      wfs    density  energy       fermi  poisson  magmom
iter:   1  22:52:16  +1.07   +inf   -11.919357    0      23       +0.0000
iter:   2  22:52:19  -0.40   +inf   -11.993143    1               +0.0000
iter:   3  22:52:23  -0.98   +inf   -12.009720    1               +0.0000
iter:   4  22:52:32  -1.46  -1.01   -10.651411    31     10       +0.0169
iter:   5  22:52:41  -1.59  -1.04    -9.679290    5      10       +2.0000
iter:   6  22:52:50  -1.89  -1.15    -9.228536    34     9        +2.0000
iter:   7  22:53:01  -2.33  -1.28    -9.020514    28     9        +2.0000
iter:   8  22:53:11  -2.53  -1.30    -8.837373    34     8        +2.0000
iter:   9  22:53:21  -2.63  -1.32    -8.676128    34     8        +2.0000
iter:  10  22:53:29  -2.70  -1.34    -8.534210    35     8        +2.0000
iter:  11  22:53:39  -2.74  -1.36    -8.409336    34     8        +2.0000
iter:  12  22:53:49  -2.79  -1.38    -8.299463    34     8        +2.0000
iter:  13  22:53:58  -2.83  -1.40    -8.202780    35     8        +2.0000
iter:  14  22:54:09  -2.89  -1.41    -8.117677    35     8        +2.0000
iter:  15  22:54:18  -2.93  -1.43    -8.042738    35     8        +2.0000
iter:  16  22:54:28  -2.99  -1.45    -7.976658    32     7        +2.0000
iter:  17  22:54:37  -3.04  -1.47    -7.918432    35     7        +2.0000
iter:  18  22:54:46  -3.10  -1.49    -7.867052    33     7        +2.0000
iter:  19  22:54:57  -3.15  -1.50    -7.821664    34     7        +2.0000
iter:  20  22:55:07  -3.21  -1.52    -7.781525    34     7        +2.0000
iter:  21  22:55:16  -3.26  -1.54    -7.745985    35     7        +2.0000
iter:  22  22:55:26  -3.33  -1.56    -7.714478    35     7        +2.0000
iter:  23  22:55:37  -3.40  -1.58    -7.686512    27     7        +2.0000
iter:  24  22:55:47  -3.47  -1.59    -7.661577    35     6        +2.0000
iter:  25  22:55:58  -3.54  -1.61    -7.639440    34     6        +2.0000
iter:  26  22:56:07  -3.61  -1.63    -7.619714    34     6        +2.0000
iter:  27  22:56:16  -3.67  -1.64    -7.602101    35     6        +2.0000
iter:  28  22:56:26  -3.72  -1.66    -7.586353    33     6        +2.0000
iter:  29  22:56:34  -3.77  -1.68    -7.572252    33     6        +2.0000
iter:  30  22:56:45  -3.82  -1.69    -7.559609    35     6        +2.0000
iter:  31  22:56:57  -3.89  -1.71    -7.548261    36     6        +2.0000
iter:  32  22:57:06  -3.95  -1.73    -7.538061    33     6        +2.0000
iter:  33  22:57:16  -3.99  -1.74    -7.528883    35     6        +2.0000
iter:  34  22:57:27  -4.04  -1.76    -7.520614    35     6        +2.0000
iter:  35  22:57:37  -4.08  -1.77    -7.513158    7      6        +2.0000
iter:  36  22:57:48  -4.14  -1.79    -7.506428    5      6        +2.0000
