ATOMS
 28     4.00000000000000     5.00000000000000     5.00000000000000
 28     6.00000000000000     5.00000000000000     5.00000000000000
