
  ___ ___ ___ _ _ _  
 |   |   |_  | | | | 
 | | | | | . | | | | 
 |__ |  _|___|_____|  1.3.0
 |___|_|             

User:   efefer@efefer-X301A
Date:   Sat May 19 13:54:24 2018
Arch:   x86_64
Pid:    17020
Python: 3.6.5
gpaw:   /home/efefer/mysoftwares/anaconda3/lib/python3.6/site-packages/gpaw
_gpaw:  /home/efefer/mysoftwares/anaconda3/lib/python3.6/site-packages/
       _gpaw.cpython-36m-x86_64-linux-gnu.so
ase:    /home/efefer/mysoftwares/anaconda3/lib/python3.6/site-packages/ase-3.16.0-py3.6.egg/ase (version 3.16.0)
numpy:  /home/efefer/mysoftwares/anaconda3/lib/python3.6/site-packages/numpy (version 1.14.2)
scipy:  /home/efefer/mysoftwares/anaconda3/lib/python3.6/site-packages/scipy (version 1.0.0)
units:  Angstrom and eV
cores:  1

Input parameters:
  eigensolver: dav
  occupations: {fixmagmom: True,
                name: fermi-dirac,
                width: 0.0}
  verbose: 1
  xc: PBE

System changes: positions, numbers, cell, pbc, initial_charges, initial_magmoms 

Initialize ...

H-setup:
  name: Hydrogen
  id: d65de229564ff8ea4db303e23b6d1ecf
  Z: 1
  valence: 1
  core: 0
  charge: 0.0
  file: /home/efefer/WORKS/GPAW/gpaw-setups-0.9.11271/H.PBE.gz
  cutoffs: 0.48(comp), 0.85(filt), 0.53(core), lmax=2
  valence states:
                energy  radius
    1s(1.00)    -6.494   0.476
    *s          20.717   0.476
    *p           0.000   0.476

  Using partial waves for H as LCAO basis

Reference energy: -24.980324

Spin-paired calculation

Occupation numbers:
  Fixed magnetic moment
  Fermi-Dirac: width=0.0000 eV

Convergence criteria:
  Maximum total energy change: 0.0005 eV / electron
  Maximum integral of absolute density change: 0.0001 electrons
  Maximum integral of absolute eigenstate change: 4e-08 eV^2
  Maximum number of iterations: 333

Symmetries present (total): 1

  ( 1  0  0)
  ( 0  1  0)
  ( 0  0  1)

1 k-point (Gamma)
1 k-point in the irreducible part of the Brillouin zone
       k-points in crystal coordinates                weights
   0:     0.00000000    0.00000000    0.00000000          1/1

Wave functions: Uniform real-space grid
  Kinetic energy operator: 6*3+1=19 point O(h^6) finite-difference Laplacian
  Eigensolver: None  MatrixOperator buffer_size: default value or 
                              see value of nblock in input file
Diagonalizer layout: Serial LAPACKOrthonormalizer layout: Serial LAPACK 

Davidson(niter=1, smin=None, normalize=True) 

Densities:
  Coarse grid: 48*48*48 grid
  Fine grid: 96*96*96 grid
  Total Charge: 0.000000 

Density mixing:
  Method: separate
  Backend: pulay
  Linear mixing parameter: 0.25
  Mixing with 3 old densities
  No damping of long wave oscillations 

Hamiltonian:
  XC and Coulomb potentials evaluated on a 96*96*96 grid
  Using the PBE Exchange-Correlation functional
  Interpolation: tri-quintic (5. degree polynomial)
  Poisson solver: Jacobi solver with 6 multi-grid levels
    Coarsest grid: 3 x 3 x 3 points
    Stencil: 6*3+1=19 point O(h^6) finite-difference Laplacian
    Max iterations: 1000
    Tolerance: 2.000000e-10 

Memory estimate:
  Process memory now: 52.88 MiB
  Calculator: 64.93 MiB
    Density: 26.40 MiB
      Arrays: 21.21 MiB
      Localized functions: 0.44 MiB
      Mixer: 4.75 MiB
    Hamiltonian: 29.79 MiB
      Arrays: 13.87 MiB
      XC: 0.00 MiB
      Poisson: 15.89 MiB
      vbar: 0.03 MiB
    Wavefunctions: 8.74 MiB
      Arrays psit_nG: 1.58 MiB
      Eigensolver: 5.55 MiB
      Projections: 0.00 MiB
      Projectors: 0.02 MiB
      Overlap op: 1.58 MiB

Total number of cores used: 1

Number of atoms: 2
Number of atomic orbitals: 2
Number of bands in calculation: 2
Bands to converge: occupied states only
Number of valence electrons: 2

... initialized

Initializing position-dependent things.

Density initialized from atomic densities
Creating initial wave functions:
  2 bands from LCAO basis set

       .------------------------.  
      /|                        |  
     / |                        |  
    /  |                        |  
   /   |                        |  
  /    |                        |  
 *     |                        |  
 |     |                        |  
 |     |                        |  
 |     |        HH              |  
 |     |                        |  
 |     |                        |  
 |     .------------------------.  
 |    /                        /   
 |   /                        /    
 |  /                        /     
 | /                        /      
 |/                        /       
 *------------------------*        

Positions:
   0 H      4.630000    5.000000    5.000000
   1 H      5.370000    5.000000    5.000000

Unit cell:
           periodic     x           y           z      points  spacing
  1. axis:    no    10.000000    0.000000    0.000000    48     0.2083
  2. axis:    no     0.000000   10.000000    0.000000    48     0.2083
  3. axis:    no     0.000000    0.000000   10.000000    48     0.2083

  Lengths:  10.000000  10.000000  10.000000
  Angles:   90.000000  90.000000  90.000000

Effective grid spacing dv^(1/3) = 0.2083

                     log10-error:    total        iterations:
           time      wfs    density  energy       fermi  poisson
iter:   1  13:54:28  +2.17   +inf    -7.212140    0      14     
iter:   2  13:54:28  +1.46   +inf    -7.353762    0             
iter:   3  13:54:28  +0.48   +inf    -7.375784    0             
iter:   4  13:54:31  +0.23  -0.41    -7.044978    0      7      
iter:   5  13:54:33  +0.35  -0.55    -6.725805    0      8      
iter:   6  13:54:35  +0.49  -1.24    -6.716515    0      6      
iter:   7  13:54:38  -0.35  -1.75    -6.717042    0      6      
iter:   8  13:54:40  -0.81  -2.06    -6.717035    0      5      
iter:   9  13:54:41  -2.10  -2.72    -6.717107    0      4      
iter:  10  13:54:43  -2.43  -3.18    -6.717110    0      3      
iter:  11  13:54:45  -3.30  -3.33    -6.717105    0      3      
iter:  12  13:54:46  -3.42  -3.36    -6.717062    0      2      
iter:  13  13:54:48  -4.12  -3.49    -6.717066    0      2      
iter:  14  13:54:49  -4.09  -3.65    -6.717122    0      2      
iter:  15  13:54:51  -4.95  -3.79    -6.717159    0      1      
iter:  16  13:54:52  -4.94  -4.00    -6.717107    0      1      
iter:  17  13:54:53  -5.67  -4.48    -6.717098    0      1      
iter:  18  13:54:54  -5.62  -4.62    -6.717110    0      1      
iter:  19  13:54:56  -6.42  -4.69    -6.717126    0      1      
iter:  20  13:54:57  -6.42  -4.77    -6.717107    0      1      
iter:  21  13:54:58  -7.03  -4.91    -6.717106    0      1      
iter:  22  13:54:59  -6.99  -5.88    -6.717106    0      1      
iter:  23  13:55:01  -7.68  -6.11    -6.717104    0      1      

Converged after 23 iterations.

Dipole moment: (-0.000000, 0.000000, -0.000000) |e|*Ang

Energy contributions relative to reference atoms: (reference = -24.980324)

Kinetic:         +6.881086
Potential:       -8.432956
External:        +0.000000
XC:              -5.120184
Entropy (-ST):   +0.000000
Local:           -0.045050
--------------------------
Free energy:     -6.717104
Extrapolated:    -6.717104

Fermi levels: -4.96945, -4.96945

 Band  Eigenvalues  Occupancy
    0    -10.39178    2.00000
    1      0.45289    0.00000

Writing to H2.gpw (mode='')


Forces in eV/Ang:
  0 H    -0.36697    0.00000   -0.00000
  1 H     0.36697    0.00000   -0.00000

System changes: positions 

Initializing position-dependent things.

Density initialized from wave functions
       .------------------------.  
      /|                        |  
     / |                        |  
    /  |                        |  
   /   |                        |  
  /    |                        |  
 *     |                        |  
 |     |                        |  
 |     |                        |  
 |     |       H  H             |  
 |     |                        |  
 |     |                        |  
 |     .------------------------.  
 |    /                        /   
 |   /                        /    
 |  /                        /     
 | /                        /      
 |/                        /       
 *------------------------*        

Positions:
   0 H      4.593303    5.000000    5.000000
   1 H      5.406697    5.000000    5.000000

Unit cell:
           periodic     x           y           z      points  spacing
  1. axis:    no    10.000000    0.000000    0.000000    48     0.2083
  2. axis:    no     0.000000   10.000000    0.000000    48     0.2083
  3. axis:    no     0.000000    0.000000   10.000000    48     0.2083

  Lengths:  10.000000  10.000000  10.000000
  Angles:   90.000000  90.000000  90.000000

Effective grid spacing dv^(1/3) = 0.2083

                     log10-error:    total        iterations:
           time      wfs    density  energy       fermi  poisson
iter:   1  13:55:05  +0.84   +inf    -6.668012    0      13     
iter:   2  13:55:07  +0.42  -1.14    -6.667971    0      6      
iter:   3  13:55:09  -0.69  -1.28    -6.658064    0      7      
iter:   4  13:55:12  -1.28  -1.90    -6.658371    0      5      
iter:   5  13:55:14  -1.84  -2.16    -6.658420    0      5      
iter:   6  13:55:16  -2.03  -2.46    -6.658437    0      5      
iter:   7  13:55:18  -2.37  -3.25    -6.658475    0      3      
iter:   8  13:55:19  -2.68  -3.42    -6.658436    0      1      
iter:   9  13:55:21  -2.96  -3.38    -6.658450    0      2      
iter:  10  13:55:23  -3.27  -3.39    -6.658477    0      3      
iter:  11  13:55:25  -3.55  -3.25    -6.658460    0      3      
iter:  12  13:55:27  -3.79  -3.38    -6.658395    0      1      
iter:  13  13:55:29  -4.06  -3.39    -6.658465    0      3      
iter:  14  13:55:31  -4.23  -3.56    -6.658475    0      2      
iter:  15  13:55:32  -4.53  -3.71    -6.658488    0      2      
iter:  16  13:55:34  -4.61  -4.36    -6.658464    0      1      
iter:  17  13:55:35  -5.15  -4.44    -6.658456    0      1      
iter:  18  13:55:36  -5.22  -4.53    -6.658454    0      1      
iter:  19  13:55:38  -5.70  -4.78    -6.658467    0      1      
iter:  20  13:55:39  -5.75  -4.84    -6.658457    0      1      
iter:  21  13:55:40  -6.16  -5.27    -6.658471    0      1      
iter:  22  13:55:41  -6.36  -5.67    -6.658472    0      1      
iter:  23  13:55:43  -6.71  -5.34    -6.658469    0      1      
iter:  24  13:55:44  -6.85  -5.61    -6.658470    0      1      
iter:  25  13:55:45  -7.23  -5.67    -6.658470    0      1      
iter:  26  13:55:47  -7.35  -5.81    -6.658471    0      1      
iter:  27  13:55:48  -7.78  -5.84    -6.658471    0      1      

Converged after 27 iterations.

Dipole moment: (0.000000, -0.000000, -0.000000) |e|*Ang

Energy contributions relative to reference atoms: (reference = -24.980324)

Kinetic:         +5.105912
Potential:       -7.205126
External:        +0.000000
XC:              -4.515621
Entropy (-ST):   +0.000000
Local:           -0.043636
--------------------------
Free energy:     -6.658471
Extrapolated:    -6.658471

Fermi levels: -4.94187, -4.94187

 Band  Eigenvalues  Occupancy
    0    -10.05314    2.00000
    1      0.16941    0.00000


Forces in eV/Ang:
  0 H     1.78970   -0.00000   -0.00000
  1 H    -1.78970    0.00000   -0.00000

System changes: positions 

Initializing position-dependent things.

Density initialized from wave functions
       .------------------------.  
      /|                        |  
     / |                        |  
    /  |                        |  
   /   |                        |  
  /    |                        |  
 *     |                        |  
 |     |                        |  
 |     |                        |  
 |     |        HH              |  
 |     |                        |  
 |     |                        |  
 |     .------------------------.  
 |    /                        /   
 |   /                        /    
 |  /                        /     
 | /                        /      
 |/                        /       
 *------------------------*        

Positions:
   0 H      4.624836    5.000000    5.000000
   1 H      5.375164    5.000000    5.000000

Unit cell:
           periodic     x           y           z      points  spacing
  1. axis:    no    10.000000    0.000000    0.000000    48     0.2083
  2. axis:    no     0.000000   10.000000    0.000000    48     0.2083
  3. axis:    no     0.000000    0.000000   10.000000    48     0.2083

  Lengths:  10.000000  10.000000  10.000000
  Angles:   90.000000  90.000000  90.000000

Effective grid spacing dv^(1/3) = 0.2083

                     log10-error:    total        iterations:
           time      wfs    density  energy       fermi  poisson
iter:   1  13:55:51  +0.68   +inf    -6.725323    0      13     
iter:   2  13:55:54  +0.30  -1.21    -6.726198    0      6      
iter:   3  13:55:56  -0.82  -1.35    -6.718676    0      7      
iter:   4  13:55:58  -1.47  -1.99    -6.718838    0      5      
iter:   5  13:56:00  -2.07  -2.29    -6.718937    0      4      
iter:   6  13:56:02  -2.31  -2.55    -6.718937    0      5      
iter:   7  13:56:04  -2.52  -3.27    -6.718916    0      3      
iter:   8  13:56:06  -2.95  -3.50    -6.718963    0      2      
iter:   9  13:56:07  -3.12  -3.60    -6.718958    0      1      
iter:  10  13:56:09  -3.54  -3.56    -6.718889    0      1      
iter:  11  13:56:10  -3.71  -3.55    -6.718991    0      1      
iter:  12  13:56:11  -4.13  -3.54    -6.718925    0      2      
iter:  13  13:56:13  -4.31  -3.36    -6.718945    0      3      
iter:  14  13:56:15  -4.47  -3.78    -6.718949    0      2      
iter:  15  13:56:16  -4.72  -4.28    -6.718952    0      1      
iter:  16  13:56:17  -4.98  -4.44    -6.718958    0      1      
iter:  17  13:56:19  -5.18  -4.92    -6.718945    0      1      
iter:  18  13:56:20  -5.55  -5.22    -6.718942    0      1      
iter:  19  13:56:21  -5.74  -5.16    -6.718944    0      1      
iter:  20  13:56:23  -6.10  -5.15    -6.718945    0      1      
iter:  21  13:56:24  -6.32  -5.10    -6.718940    0      1      
iter:  22  13:56:25  -6.71  -4.88    -6.718946    0      1      
iter:  23  13:56:27  -6.82  -4.95    -6.718944    0      1      
iter:  24  13:56:28  -7.13  -5.04    -6.718947    0      1      
iter:  25  13:56:30  -7.17  -5.43    -6.718944    0      1      
iter:  26  13:56:31  -7.75  -5.55    -6.718943    0      1      

Converged after 26 iterations.

Dipole moment: (-0.000000, 0.000000, -0.000000) |e|*Ang

Energy contributions relative to reference atoms: (reference = -24.980324)

Kinetic:         +6.612075
Potential:       -8.255012
External:        +0.000000
XC:              -5.031201
Entropy (-ST):   +0.000000
Local:           -0.044805
--------------------------
Free energy:     -6.718943
Extrapolated:    -6.718943

Fermi levels: -4.96452, -4.96452

 Band  Eigenvalues  Occupancy
    0    -10.34189    2.00000
    1      0.41285    0.00000


Forces in eV/Ang:
  0 H     0.00648    0.00000   -0.00000
  1 H    -0.00648    0.00000   -0.00000

Timing:                                      incl.     excl.
-------------------------------------------------------------------
Density initialized from wave functions:     0.041     0.040   0.0% |
 Symmetrize density:                         0.000     0.000   0.0% |
Forces:                                      0.027     0.027   0.0% |
Hamiltonian:                                11.005     0.000   0.0% |
 Atomic:                                     0.209     0.003   0.0% |
  XC Correction:                             0.206     0.206   0.2% |
 Calculate atomic Hamiltonians:              0.002     0.002   0.0% |
 Communicate:                                0.000     0.000   0.0% |
 Hartree integrate/restrict:                 0.037     0.037   0.0% |
 Initialize Hamiltonian:                     0.006     0.006   0.0% |
 Poisson:                                    7.815     7.815   6.1% |-|
 XC 3D grid:                                 2.925     2.925   2.3% ||
 vbar:                                       0.012     0.012   0.0% |
LCAO initialization:                         0.012     0.007   0.0% |
 LCAO eigensolver:                           0.002     0.000   0.0% |
  Calculate projections:                     0.000     0.000   0.0% |
  DenseAtomicCorrection:                     0.000     0.000   0.0% |
  Distribute overlap matrix:                 0.000     0.000   0.0% |
  Orbital Layouts:                           0.000     0.000   0.0% |
  Potential matrix:                          0.001     0.001   0.0% |
 LCAO to grid:                               0.001     0.001   0.0% |
 Set positions (LCAO WFS):                   0.003     0.000   0.0% |
  Basic WFS set positions:                   0.000     0.000   0.0% |
  Basis functions set positions:             0.000     0.000   0.0% |
  TCI: Calculate S, T, P:                    0.002     0.002   0.0% |
Redistribute:                                0.002     0.002   0.0% |
SCF-cycle:                                 115.320     0.071   0.1% |
 Davidson:                                   2.041     1.065   0.8% |
  calc. matrices:                            0.794     0.197   0.2% |
   Apply hamiltonian:                        0.597     0.597   0.5% |
  diagonalize:                               0.008     0.008   0.0% |
  rotate_psi:                                0.174     0.174   0.1% |
 Density:                                    1.451     0.002   0.0% |
  Atomic density matrices:                   0.052     0.052   0.0% |
  Mix:                                       1.295     1.295   1.0% |
  Multipole moments:                         0.014     0.014   0.0% |
  Pseudo density:                            0.088     0.087   0.1% |
   Symmetrize density:                       0.001     0.001   0.0% |
 Hamiltonian:                              110.947     0.009   0.0% |
  Atomic:                                    5.311     0.065   0.1% |
   XC Correction:                            5.246     5.246   4.1% |-|
  Calculate atomic Hamiltonians:             0.044     0.044   0.0% |
  Communicate:                               0.001     0.001   0.0% |
  Hartree integrate/restrict:                0.880     0.880   0.7% |
  Poisson:                                  34.293    34.293  27.0% |----------|
  XC 3D grid:                               70.146    70.146  55.2% |---------------------|
  vbar:                                      0.263     0.263   0.2% |
 Orthonormalize:                             0.005     0.000   0.0% |
  Band Layouts:                              0.000     0.000   0.0% |
   Inverse Cholesky:                         0.000     0.000   0.0% |
  calc_s_matrix:                             0.002     0.002   0.0% |
  projections:                               0.000     0.000   0.0% |
  rotate_psi:                                0.003     0.003   0.0% |
 Subspace diag:                              0.804     0.007   0.0% |
  Band Layouts:                              0.006     0.001   0.0% |
   Diagonalize:                              0.003     0.003   0.0% |
   Distribute results:                       0.001     0.001   0.0% |
  calc_h_matrix:                             0.663     0.058   0.0% |
   Apply hamiltonian:                        0.605     0.605   0.5% |
  rotate_psi:                                0.129     0.129   0.1% |
Set symmetry:                                0.000     0.000   0.0% |
Other:                                       0.743     0.743   0.6% |
-------------------------------------------------------------------
Total:                                               127.151 100.0%

Memory usage: 198.88 MiB
Date: Sat May 19 13:56:31 2018
