
  ___ ___ ___ _ _ _  
 |   |   |_  | | | | 
 | | | | | . | | | | 
 |__ |  _|___|_____|  1.3.0
 |___|_|             

User:   efefer@efefer-X301A
Date:   Sat May 19 13:20:22 2018
Arch:   x86_64
Pid:    15862
Python: 3.6.5
gpaw:   /home/efefer/mysoftwares/anaconda3/lib/python3.6/site-packages/gpaw
_gpaw:  /home/efefer/mysoftwares/anaconda3/lib/python3.6/site-packages/
       _gpaw.cpython-36m-x86_64-linux-gnu.so
ase:    /home/efefer/mysoftwares/anaconda3/lib/python3.6/site-packages/ase (version 3.13.0)
numpy:  /home/efefer/mysoftwares/anaconda3/lib/python3.6/site-packages/numpy (version 1.14.2)
scipy:  /home/efefer/mysoftwares/anaconda3/lib/python3.6/site-packages/scipy (version 1.0.0)
units:  Angstrom and eV
cores:  1

Input parameters:
  eigensolver: dav
  occupations: {fixmagmom: True,
                name: fermi-dirac,
                width: 0.0}
  verbose: 1
  xc: PBE

System changes: positions, numbers, cell, pbc, initial_charges, initial_magmoms 

Initialize ...

H-setup:
  name: Hydrogen
  id: d65de229564ff8ea4db303e23b6d1ecf
  Z: 1
  valence: 1
  core: 0
  charge: 0.0
  file: /home/efefer/WORKS/GPAW/gpaw-setups-0.9.11271/H.PBE.gz
  cutoffs: 0.48(comp), 0.85(filt), 0.53(core), lmax=2
  valence states:
                energy  radius
    1s(1.00)    -6.494   0.476
    *s          20.717   0.476
    *p           0.000   0.476

  Using partial waves for H as LCAO basis

Reference energy: -24.980324

Spin-paired calculation

Occupation numbers:
  Fixed magnetic moment
  Fermi-Dirac: width=0.0000 eV

Convergence criteria:
  Maximum total energy change: 0.0005 eV / electron
  Maximum integral of absolute density change: 0.0001 electrons
  Maximum integral of absolute eigenstate change: 4e-08 eV^2
  Maximum number of iterations: 333

Symmetries present (total): 1

  ( 1  0  0)
  ( 0  1  0)
  ( 0  0  1)

1 k-point (Gamma)
1 k-point in the irreducible part of the Brillouin zone
       k-points in crystal coordinates                weights
   0:     0.00000000    0.00000000    0.00000000          1/1

Wave functions: Uniform real-space grid
  Kinetic energy operator: 6*3+1=19 point O(h^6) finite-difference Laplacian
  Eigensolver: None  MatrixOperator buffer_size: default value or 
                              see value of nblock in input file
Diagonalizer layout: Serial LAPACKOrthonormalizer layout: Serial LAPACK 

Davidson(niter=1, smin=None, normalize=True) 

Densities:
  Coarse grid: 48*48*48 grid
  Fine grid: 96*96*96 grid
  Total Charge: 0.000000 

Density mixing:
  Method: separate
  Backend: pulay
  Linear mixing parameter: 0.25
  Mixing with 3 old densities
  No damping of long wave oscillations 

Hamiltonian:
  XC and Coulomb potentials evaluated on a 96*96*96 grid
  Using the PBE Exchange-Correlation functional
  Interpolation: tri-quintic (5. degree polynomial)
  Poisson solver: Jacobi solver with 6 multi-grid levels
    Coarsest grid: 3 x 3 x 3 points
    Stencil: 6*3+1=19 point O(h^6) finite-difference Laplacian
    Max iterations: 1000
    Tolerance: 2.000000e-10 

Memory estimate:
  Process memory now: 52.42 MiB
  Calculator: 64.93 MiB
    Density: 26.40 MiB
      Arrays: 21.21 MiB
      Localized functions: 0.44 MiB
      Mixer: 4.75 MiB
    Hamiltonian: 29.79 MiB
      Arrays: 13.87 MiB
      XC: 0.00 MiB
      Poisson: 15.89 MiB
      vbar: 0.03 MiB
    Wavefunctions: 8.74 MiB
      Arrays psit_nG: 1.58 MiB
      Eigensolver: 5.55 MiB
      Projections: 0.00 MiB
      Projectors: 0.02 MiB
      Overlap op: 1.58 MiB

Total number of cores used: 1

Number of atoms: 2
Number of atomic orbitals: 2
Number of bands in calculation: 2
Bands to converge: occupied states only
Number of valence electrons: 2

... initialized

Initializing position-dependent things.

Density initialized from atomic densities
Creating initial wave functions:
  2 bands from LCAO basis set

       .------------------------.  
      /|                        |  
     / |                        |  
    /  |                        |  
   /   |                        |  
  /    |                        |  
 *     |                        |  
 |     |                        |  
 |     |                        |  
 |     |        HH              |  
 |     |                        |  
 |     |                        |  
 |     .------------------------.  
 |    /                        /   
 |   /                        /    
 |  /                        /     
 | /                        /      
 |/                        /       
 *------------------------*        

Positions:
   0 H      4.630000    5.000000    5.000000
   1 H      5.370000    5.000000    5.000000

Unit cell:
           periodic     x           y           z      points  spacing
  1. axis:    no    10.000000    0.000000    0.000000    48     0.2083
  2. axis:    no     0.000000   10.000000    0.000000    48     0.2083
  3. axis:    no     0.000000    0.000000   10.000000    48     0.2083

  Lengths:  10.000000  10.000000  10.000000
  Angles:   90.000000  90.000000  90.000000

Effective grid spacing dv^(1/3) = 0.2083

                     log10-error:    total        iterations:
           time      wfs    density  energy       fermi  poisson
iter:   1  13:20:27  +2.17   +inf    -7.212140    0      14     
iter:   2  13:20:27  +1.46   +inf    -7.353762    0             
iter:   3  13:20:27  +0.48   +inf    -7.375784    0             
iter:   4  13:20:30  +0.23  -0.41    -7.044978    0      7      
iter:   5  13:20:32  +0.35  -0.55    -6.725805    0      8      
iter:   6  13:20:35  +0.49  -1.24    -6.716515    0      6      
iter:   7  13:20:37  -0.35  -1.75    -6.717042    0      6      
iter:   8  13:20:39  -0.81  -2.06    -6.717035    0      5      
iter:   9  13:20:41  -2.10  -2.72    -6.717107    0      4      
iter:  10  13:20:43  -2.43  -3.18    -6.717110    0      3      
iter:  11  13:20:44  -3.30  -3.33    -6.717105    0      3      
iter:  12  13:20:46  -3.42  -3.36    -6.717062    0      2      
iter:  13  13:20:47  -4.12  -3.49    -6.717066    0      2      
iter:  14  13:20:49  -4.09  -3.65    -6.717122    0      2      
iter:  15  13:20:50  -4.95  -3.79    -6.717159    0      1      
iter:  16  13:20:52  -4.94  -4.00    -6.717107    0      1      
iter:  17  13:20:53  -5.67  -4.48    -6.717098    0      1      
iter:  18  13:20:54  -5.62  -4.62    -6.717110    0      1      
iter:  19  13:20:56  -6.42  -4.69    -6.717126    0      1      
iter:  20  13:20:57  -6.42  -4.77    -6.717107    0      1      
iter:  21  13:20:59  -7.03  -4.91    -6.717106    0      1      
iter:  22  13:21:00  -6.99  -5.88    -6.717106    0      1      
iter:  23  13:21:01  -7.68  -6.11    -6.717104    0      1      

Converged after 23 iterations.

Dipole moment: (-0.000000, 0.000000, -0.000000) |e|*Ang

Energy contributions relative to reference atoms: (reference = -24.980324)

Kinetic:         +6.881086
Potential:       -8.432956
External:        +0.000000
XC:              -5.120184
Entropy (-ST):   +0.000000
Local:           -0.045050
--------------------------
Free energy:     -6.717104
Extrapolated:    -6.717104

Fermi levels: -4.96945, -4.96945

 Band  Eigenvalues  Occupancy
    0    -10.39178    2.00000
    1      0.45289    0.00000

Writing to H2.gpw (mode='')

Timing:                              incl.     excl.
-----------------------------------------------------------
Hamiltonian:                         3.690     0.000   0.0% |
 Atomic:                             0.072     0.001   0.0% |
  XC Correction:                     0.071     0.071   0.2% |
 Calculate atomic Hamiltonians:      0.001     0.001   0.0% |
 Communicate:                        0.000     0.000   0.0% |
 Hartree integrate/restrict:         0.013     0.013   0.0% |
 Initialize Hamiltonian:             0.006     0.006   0.0% |
 Poisson:                            2.665     2.665   6.8% |--|
 XC 3D grid:                         0.928     0.928   2.4% ||
 vbar:                               0.005     0.005   0.0% |
LCAO initialization:                 0.014     0.009   0.0% |
 LCAO eigensolver:                   0.002     0.000   0.0% |
  Calculate projections:             0.000     0.000   0.0% |
  DenseAtomicCorrection:             0.000     0.000   0.0% |
  Distribute overlap matrix:         0.000     0.000   0.0% |
  Orbital Layouts:                   0.000     0.000   0.0% |
  Potential matrix:                  0.001     0.001   0.0% |
 LCAO to grid:                       0.001     0.001   0.0% |
 Set positions (LCAO WFS):           0.003     0.000   0.0% |
  Basic WFS set positions:           0.000     0.000   0.0% |
  Basis functions set positions:     0.000     0.000   0.0% |
  TCI: Calculate S, T, P:            0.003     0.003   0.0% |
SCF-cycle:                          34.427     0.023   0.1% |
 Davidson:                           0.681     0.327   0.8% |
  calc. matrices:                    0.243     0.062   0.2% |
   Apply hamiltonian:                0.181     0.181   0.5% |
  diagonalize:                       0.054     0.054   0.1% |
  rotate_psi:                        0.058     0.058   0.1% |
 Density:                            0.434     0.001   0.0% |
  Atomic density matrices:           0.016     0.016   0.0% |
  Mix:                               0.389     0.389   1.0% |
  Multipole moments:                 0.004     0.004   0.0% |
  Pseudo density:                    0.025     0.025   0.1% |
   Symmetrize density:               0.000     0.000   0.0% |
 Hamiltonian:                       33.044     0.003   0.0% |
  Atomic:                            1.511     0.019   0.0% |
   XC Correction:                    1.492     1.492   3.8% |-|
  Calculate atomic Hamiltonians:     0.013     0.013   0.0% |
  Communicate:                       0.000     0.000   0.0% |
  Hartree integrate/restrict:        0.267     0.267   0.7% |
  Poisson:                          11.395    11.395  29.2% |-----------|
  XC 3D grid:                       19.775    19.775  50.7% |-------------------|
  vbar:                              0.081     0.081   0.2% |
 Orthonormalize:                     0.002     0.000   0.0% |
  Band Layouts:                      0.000     0.000   0.0% |
   Inverse Cholesky:                 0.000     0.000   0.0% |
  calc_s_matrix:                     0.001     0.001   0.0% |
  projections:                       0.000     0.000   0.0% |
  rotate_psi:                        0.001     0.001   0.0% |
 Subspace diag:                      0.243     0.002   0.0% |
  Band Layouts:                      0.002     0.000   0.0% |
   Diagonalize:                      0.001     0.001   0.0% |
   Distribute results:               0.000     0.000   0.0% |
  calc_h_matrix:                     0.197     0.019   0.0% |
   Apply hamiltonian:                0.178     0.178   0.5% |
  rotate_psi:                        0.042     0.042   0.1% |
Set symmetry:                        0.000     0.000   0.0% |
Other:                               0.846     0.846   2.2% ||
-----------------------------------------------------------
Total:                                        38.978 100.0%

Memory usage: 191.88 MiB
Date: Sat May 19 13:21:01 2018
