
  ___ ___ ___ _ _ _  
 |   |   |_  | | | | 
 | | | | | . | | | | 
 |__ |  _|___|_____|  1.3.0
 |___|_|             

User:   efefer@efefer-X301A
Date:   Wed Apr 11 00:26:41 2018
Arch:   x86_64
Pid:    16222
Python: 3.6.1
gpaw:   /home/efefer/mysoftwares/anaconda3/lib/python3.6/site-packages/gpaw
_gpaw:  /home/efefer/mysoftwares/anaconda3/lib/python3.6/site-packages/
       _gpaw.cpython-36m-x86_64-linux-gnu.so
ase:    /home/efefer/mysoftwares/anaconda3/lib/python3.6/site-packages/ase (version 3.13.0)
numpy:  /home/efefer/mysoftwares/anaconda3/lib/python3.6/site-packages/numpy (version 1.12.1)
scipy:  /home/efefer/mysoftwares/anaconda3/lib/python3.6/site-packages/scipy (version 1.0.0)
units:  Angstrom and eV
cores:  1

Input parameters:
  eigensolver: rmm-diis
  hund: True
  mode: {ecut: 340.0,
         name: pw}
  occupations: {fixmagmom: True,
                name: fermi-dirac,
                width: 0.0}
  xc: PBE

System changes: positions, numbers, cell, pbc, initial_charges, initial_magmoms 

Initialize ...

H-setup:
  name: Hydrogen
  id: d65de229564ff8ea4db303e23b6d1ecf
  Z: 1
  valence: 1
  core: 0
  charge: 0.0
  file: /home/efefer/WORKS/GPAW/gpaw-setups-0.9.11271/H.PBE.gz
  cutoffs: 0.48(comp), 0.85(filt), 0.53(core), lmax=2
  valence states:
                energy  radius
    1s(1.00)    -6.494   0.476
    *s          20.717   0.476
    *p           0.000   0.476

  Using partial waves for H as LCAO basis

Reference energy: -12.490162

Spin-polarized calculation.
Magnetic moment:  1.000000

Occupation numbers:
  Fixed magnetic moment
  Fermi-Dirac: width=0.0000 eV

Convergence criteria:
  Maximum total energy change: 0.0005 eV / electron
  Maximum integral of absolute density change: 0.0001 electrons
  Maximum integral of absolute eigenstate change: 4e-08 eV^2
  Maximum number of iterations: 333

Symmetries present (total): 1

  ( 1  0  0)
  ( 0  1  0)
  ( 0  0  1)

1 k-point (Gamma)
1 k-point in the irreducible part of the Brillouin zone
       k-points in crystal coordinates                weights
   0:     0.00000000    0.00000000    0.00000000          1/1

Wave functions: Plane wave expansion
  Cutoff energy: 340.000 eV
  Number of coefficients: 14243 (reduced to 7122)
  Using FFTW library
  Eigensolver: None  MatrixOperator buffer_size: default value or 
                              see value of nblock in input file
Diagonalizer layout: Serial LAPACKOrthonormalizer layout: Serial LAPACK 

RMM-DIIS eigensolver
       keep_htpsit: True
       Block size: 10
       DIIS iterations: 3
       Threshold for DIIS: 1.0e-16
       Limit lambda: False
       use_rayleigh: False
       trial_step: 0.1 

Densities:
  Coarse grid: 45*45*45 grid
  Fine grid: 90*90*90 grid
  Total Charge: 0.000000 

Density mixing:
  Method: sum
  Backend: pulay
  Linear mixing parameter: 0.05
  Mixing with 5 old densities
  Damping of long wave oscillations: 50 

Hamiltonian:
  XC and Coulomb potentials evaluated on a 90*90*90 grid
  Using the PBE Exchange-Correlation functional
 

Memory estimate:
  Process memory now: 90.12 MiB
  Calculator: 70.75 MiB
    Density: 49.11 MiB
      Arrays: 24.33 MiB
      Localized functions: 17.82 MiB
      Mixer: 6.95 MiB
    Hamiltonian: 18.44 MiB
      Arrays: 18.08 MiB
      XC: 0.00 MiB
      Poisson: 0.00 MiB
      vbar: 0.36 MiB
    Wavefunctions: 3.20 MiB
      Arrays psit_nG: 0.22 MiB
      Eigensolver: 0.65 MiB
      Projections: 0.00 MiB
      Projectors: 0.38 MiB
      Overlap op: 0.11 MiB
      PW-descriptor: 1.84 MiB

Total number of cores used: 1

Number of atoms: 1
Number of atomic orbitals: 1
Number of bands in calculation: 1
Bands to converge: occupied states only
Number of valence electrons: 1

... initialized

Initializing position-dependent things.

Density initialized from atomic densities
Creating initial wave functions:
  1 band from LCAO basis set

       .------------------------.  
      /|                        |  
     / |                        |  
    /  |                        |  
   /   |                        |  
  /    |                        |  
 *     |                        |  
 |     |                        |  
 |     |                        |  
 |     |        H               |  
 |     |                        |  
 |     |                        |  
 |     .------------------------.  
 |    /                        /   
 |   /                        /    
 |  /                        /     
 | /                        /      
 |/                        /       
 *------------------------*        

Positions:
   0 H      5.000000    5.000000    5.000000

Unit cell:
           periodic     x           y           z      points  spacing
  1. axis:    no    10.000000    0.000000    0.000000    45     0.2222
  2. axis:    no     0.000000   10.000100    0.000000    45     0.2222
  3. axis:    no     0.000000    0.000000   10.000200    45     0.2222

  Lengths:  10.000000  10.000100  10.000200
  Angles:   90.000000  90.000000  90.000000

Effective grid spacing dv^(1/3) = 0.2222

                     log10-error:    total        iterations:
           time      wfs    density  energy       fermi  poisson  magmom
iter:   1  00:26:46  +4.23   +inf    -1.036069    0               +1.0000
iter:   2  00:26:46  -1.81   +inf    -1.073088    0               +1.0000
iter:   3  00:26:46  -4.37   +inf    -1.073414    0               +1.0000
iter:   4  00:26:49  -1.92  -1.14     2.987062    0               +1.0000
iter:   5  00:26:51  -1.46  -1.12     6.989947    0               +1.0000
iter:   6  00:26:54  -0.92  -0.79     0.132385    0               +1.0000
iter:   7  00:26:56  -2.67  -1.92    -1.053530    0               +1.0000
iter:   8  00:26:58  -2.65  -1.97    -1.022293    0               +1.0000
iter:   9  00:27:01  -2.46  -1.58    -1.054256    0               +1.0000
iter:  10  00:27:03  -4.15  -2.97    -1.063302    0               +1.0000
iter:  11  00:27:05  -4.86  -2.57    -1.065746    0               +1.0000
iter:  12  00:27:08  -4.89  -2.79    -1.067844    0               +1.0000
iter:  13  00:27:10  -5.40  -3.17    -1.069175    0               +1.0000
iter:  14  00:27:13  -5.79  -3.55    -1.070444    0               +1.0000
iter:  15  00:27:15  -6.19  -4.29    -1.070051    0               +1.0000
iter:  16  00:27:18  -7.65  -4.28    -1.067149    0               +1.0000
iter:  17  00:27:20  -7.52  -4.08    -1.069497    0               +1.0000
iter:  18  00:27:23  -8.26  -4.75    -1.070480    0               +1.0000
iter:  19  00:27:26  -7.93  -4.78    -1.069779    0               +1.0000
iter:  20  00:27:28  -9.72  -4.52    -1.069598    0               +1.0000
iter:  21  00:27:31  -8.27  -4.52    -1.070664    0               +1.0000
iter:  22  00:27:35  -8.76  -5.32    -1.070913    0               +1.0000
iter:  23  00:27:38  -8.41  -5.29    -1.070481    0               +1.0000

Converged after 23 iterations.

Dipole moment: (0.000000, 0.000001, 0.000001) |e|*Ang

Total magnetic moment: 1.000000
Local magnetic moments:
   0 H  0.262223

Energy contributions relative to reference atoms: (reference = -12.490162)

Kinetic:         +1.069002
Potential:       -0.657552
External:        +0.000000
XC:              -1.479499
Entropy (-ST):   +0.000000
Local:           -0.002432
--------------------------
Free energy:     -1.070481
Extrapolated:    -1.070481

Spin contamination: 0.000003 electrons
                   Up                     Down
 Band  Eigenvalues  Occupancy  Eigenvalues  Occupancy
    0     -7.55118    1.00000      0.30811    0.00000

Writing to H.gpw (mode='')

