
     Program PWSCF v.6.4 starts on 19Sep2019 at  0:48:15 

     This program is part of the open-source Quantum ESPRESSO suite
     for quantum simulation of materials; please cite
         "P. Giannozzi et al., J. Phys.:Condens. Matter 21 395502 (2009);
         "P. Giannozzi et al., J. Phys.:Condens. Matter 29 465901 (2017);
          URL http://www.quantum-espresso.org", 
     in publications or presentations arising from this work. More details at
     http://www.quantum-espresso.org/quote

     Parallel version (MPI), running on     1 processors

     MPI processes distributed on     1 nodes
     Reading input from espresso.pwi
Warning: card &IONS ignored
Warning: card / ignored
Warning: card &CELL ignored
Warning: card / ignored

     Current dimensions of program PWSCF are:
     Max number of different atomic species (ntypx) = 10
     Max number of k-points (npk) =  40000
     Max angular momentum in pseudopotentials (lmaxx) =  3
     Message from routine read_upf::
     Pseudo file Na.pbe-spn-kjpaw_psl.0.2.UPF has been fixed on the fly.
To avoid this message in the future, permanently fix 
 your pseudo files following these instructions: 
https://gitlab.com/QEF/q-e/blob/master/upftools/how_to_fix_upf.md
     Message from routine read_upf::
     Pseudo file Cl.pbe-n-kjpaw_psl.0.3.0.UPF has been fixed on the fly.
To avoid this message in the future, permanently fix 
 your pseudo files following these instructions: 
https://gitlab.com/QEF/q-e/blob/master/upftools/how_to_fix_upf.md
               file Cl.pbe-n-kjpaw_psl.0.3.0.UPF: wavefunction(s)  3S 3P renormalized

     Subspace diagonalization in iterative solution of the eigenvalue problem:
     a serial algorithm will be used


     G-vector sticks info
     --------------------
     sticks:   dense  smooth     PW     G-vecs:    dense   smooth      PW
     Sum         649     649    199                11017    11017    1807



     bravais-lattice index     =            0
     lattice parameter (alat)  =       7.6328  a.u.
     unit-cell volume          =     314.4450 (a.u.)^3
     number of atoms/cell      =            2
     number of atomic types    =            2
     number of electrons       =        16.00
     number of Kohn-Sham states=            8
     kinetic-energy cutoff     =      40.7228  Ry
     charge density cutoff     =     162.8911  Ry
     convergence threshold     =      1.0E-06
     mixing beta               =       0.7000
     number of iterations used =            8  plain     mixing
     Exchange-correlation      = SLA PW PBX PBC ( 1  4  3  4 0 0)

     celldm(1)=   7.632847  celldm(2)=   0.000000  celldm(3)=   0.000000
     celldm(4)=   0.000000  celldm(5)=   0.000000  celldm(6)=   0.000000

     crystal axes: (cart. coord. in units of alat)
               a(1) = (   0.000000   0.707107   0.707107 )  
               a(2) = (   0.707107   0.000000   0.707107 )  
               a(3) = (   0.707107   0.707107   0.000000 )  

     reciprocal axes: (cart. coord. in units 2 pi/alat)
               b(1) = ( -0.707107  0.707107  0.707107 )  
               b(2) = (  0.707107 -0.707107  0.707107 )  
               b(3) = (  0.707107  0.707107 -0.707107 )  


     PseudoPot. # 1 for Na read from file:
     /home/efefer/pseudo/Na.pbe-spn-kjpaw_psl.0.2.UPF
     MD5 check sum: 293ada0f4f4dded608382584c6f8793c
     Pseudo is Projector augmented-wave, Zval =  9.0
     Generated using "atomic" code by A. Dal Corso v.5.0.99 svn rev. 10869
     Shape of augmentation charge: PSQ
     Using radial grid of 1121 points,  4 beta functions with: 
                l(1) =   0
                l(2) =   0
                l(3) =   1
                l(4) =   1
     Q(r) pseudized with 0 coefficients 


     PseudoPot. # 2 for Cl read from file:
     /home/efefer/pseudo/Cl.pbe-n-kjpaw_psl.0.3.0.UPF
     MD5 check sum: 9f0ce8cfcbac80d2578fc6d370fdee9d
     Pseudo is Projector augmented-wave + core cor, Zval =  7.0
     Generated using "atomic" code by A. Dal Corso v.5.0.99 svn rev. 10869
     Shape of augmentation charge: PSQ
     Using radial grid of 1157 points,  4 beta functions with: 
                l(1) =   0
                l(2) =   0
                l(3) =   1
                l(4) =   1
     Q(r) pseudized with 0 coefficients 


     atomic species   valence    mass     pseudopotential
        Na             9.00    22.98977     Na( 1.00)
        Cl             7.00    35.45000     Cl( 1.00)

     48 Sym. Ops., with inversion, found



   Cartesian axes

     site n.     atom                  positions (alat units)
         1           Na  tau(   1) = (   0.0000000   0.0000000   0.0000000  )
         2           Cl  tau(   2) = (   0.7071068   0.0000000  -0.0000000  )

     number of k points=     4
                       cart. coord. in units 2pi/alat
        k(    1) = (   0.0000000   0.0000000   0.0000000), wk =   0.0740741
        k(    2) = (   0.2357023   0.2357023  -0.2357023), wk =   0.5925926
        k(    3) = (   0.4714045   0.0000000   0.0000000), wk =   0.4444444
        k(    4) = (  -0.0000000  -0.4714045   0.4714045), wk =   0.8888889

     Dense  grid:    11017 G-vectors     FFT dimensions: (  32,  32,  32)

     Estimated max dynamical RAM per process >      17.46 MB

     Check: negative core charge=   -0.000021

     Initial potential from superposition of free atoms

     starting charge   15.49915, renormalised to   16.00000
     Starting wfcs are   12 randomized atomic wfcs
     Checking if some PAW data can be deallocated... 

     total cpu time spent up to now is        1.0 secs

     Self-consistent Calculation

     iteration #  1     ecut=    40.72 Ry     beta= 0.70
     Davidson diagonalization with overlap
     ethr =  1.00E-02,  avg # of iterations =  1.0

     Threshold (ethr) on eigenvalues was too large:
     Diagonalizing with lowered threshold

     Davidson diagonalization with overlap
     ethr =  8.91E-04,  avg # of iterations =  2.0

     total cpu time spent up to now is        1.1 secs

     total energy              =    -188.80669534 Ry
     Harris-Foulkes estimate   =    -188.93682351 Ry
     estimated scf accuracy    <       0.16134895 Ry

     iteration #  2     ecut=    40.72 Ry     beta= 0.70
     Davidson diagonalization with overlap
     ethr =  1.01E-03,  avg # of iterations =  3.8

     total cpu time spent up to now is        1.3 secs

     total energy              =    -188.84360522 Ry
     Harris-Foulkes estimate   =    -188.85526758 Ry
     estimated scf accuracy    <       0.01475851 Ry

     iteration #  3     ecut=    40.72 Ry     beta= 0.70
     Davidson diagonalization with overlap
     ethr =  9.22E-05,  avg # of iterations =  2.8

     total cpu time spent up to now is        1.4 secs

     total energy              =    -188.84882250 Ry
     Harris-Foulkes estimate   =    -188.84992926 Ry
     estimated scf accuracy    <       0.00118151 Ry

     iteration #  4     ecut=    40.72 Ry     beta= 0.70
     Davidson diagonalization with overlap
     ethr =  7.38E-06,  avg # of iterations =  3.8

     total cpu time spent up to now is        1.6 secs

     total energy              =    -188.84971554 Ry
     Harris-Foulkes estimate   =    -188.84976977 Ry
     estimated scf accuracy    <       0.00010107 Ry

     iteration #  5     ecut=    40.72 Ry     beta= 0.70
     Davidson diagonalization with overlap
     ethr =  6.32E-07,  avg # of iterations =  3.0

     total cpu time spent up to now is        1.7 secs

     End of self-consistent calculation

          k = 0.0000 0.0000 0.0000 (  1411 PWs)   bands (ev):

   -48.2222 -20.1316 -20.1316 -20.1316 -11.7935   0.7805   0.7805   0.7805

          k = 0.2357 0.2357-0.2357 (  1380 PWs)   bands (ev):

   -48.2218 -20.1498 -20.1330 -20.1330 -11.5732  -0.6627   0.5949   0.5949

          k = 0.4714 0.0000 0.0000 (  1379 PWs)   bands (ev):

   -48.2216 -20.1456 -20.1368 -20.1368 -11.5289  -0.5389   0.3487   0.3487

          k =-0.0000-0.4714 0.4714 (  1382 PWs)   bands (ev):

   -48.2214 -20.1468 -20.1437 -20.1356 -11.4511  -0.4650  -0.3678   0.3841

     highest occupied level (ev):     0.7805

!    total energy              =    -188.84973938 Ry
     Harris-Foulkes estimate   =    -188.84973848 Ry
     estimated scf accuracy    <       0.00000077 Ry

     total all-electron energy =     -1248.136731 Ry

     The total energy is the sum of the following terms:

     one-electron contribution =     -82.40973492 Ry
     hartree contribution      =      42.58094255 Ry
     xc contribution           =     -24.65199329 Ry
     ewald contribution        =     -67.93645582 Ry
     one-center paw contrib.   =     -56.43249790 Ry

     convergence has been achieved in   5 iterations

     Forces acting on atoms (cartesian axes, Ry/au):

     atom    1 type  1   force =    -0.00000000    0.00000000    0.00000000
     atom    2 type  2   force =     0.00000000    0.00000000   -0.00000000

     Total force =     0.000000     Total SCF correction =     0.000000


     Computing stress (Cartesian axis) and pressure

          total   stress  (Ry/bohr**3)                   (kbar)     P=    0.15
   0.00000101  -0.00000000  -0.00000000          0.15     -0.00     -0.00
  -0.00000000   0.00000101   0.00000000         -0.00      0.15      0.00
   0.00000000  -0.00000000   0.00000101          0.00     -0.00      0.15


     Writing output data file pwscf.save/

     init_run     :      0.40s CPU      0.40s WALL (       1 calls)
     electrons    :      0.71s CPU      0.71s WALL (       1 calls)
     forces       :      0.03s CPU      0.03s WALL (       1 calls)
     stress       :      0.09s CPU      0.09s WALL (       1 calls)

     Called by init_run:
     wfcinit      :      0.02s CPU      0.02s WALL (       1 calls)
     potinit      :      0.08s CPU      0.08s WALL (       1 calls)
     hinit0       :      0.28s CPU      0.29s WALL (       1 calls)

     Called by electrons:
     c_bands      :      0.21s CPU      0.22s WALL (       6 calls)
     sum_band     :      0.08s CPU      0.08s WALL (       6 calls)
     v_of_rho     :      0.07s CPU      0.07s WALL (       6 calls)
     newd         :      0.03s CPU      0.03s WALL (       6 calls)
     PAW_pot      :      0.39s CPU      0.39s WALL (       6 calls)
     mix_rho      :      0.00s CPU      0.00s WALL (       6 calls)

     Called by c_bands:
     init_us_2    :      0.01s CPU      0.01s WALL (      60 calls)
     cegterg      :      0.20s CPU      0.20s WALL (      24 calls)

     Called by sum_band:
     sum_band:bec :      0.00s CPU      0.00s WALL (      24 calls)
     addusdens    :      0.04s CPU      0.04s WALL (       6 calls)

     Called by *egterg:
     h_psi        :      0.18s CPU      0.18s WALL (      93 calls)
     s_psi        :      0.00s CPU      0.00s WALL (      93 calls)
     g_psi        :      0.00s CPU      0.00s WALL (      65 calls)
     cdiaghg      :      0.01s CPU      0.01s WALL (      85 calls)

     Called by h_psi:
     h_psi:pot    :      0.18s CPU      0.18s WALL (      93 calls)
     h_psi:calbec :      0.01s CPU      0.01s WALL (      93 calls)
     vloc_psi     :      0.17s CPU      0.17s WALL (      93 calls)
     add_vuspsi   :      0.01s CPU      0.01s WALL (      93 calls)

     General routines
     calbec       :      0.01s CPU      0.01s WALL (     137 calls)
     fft          :      0.01s CPU      0.01s WALL (      92 calls)
     ffts         :      0.00s CPU      0.00s WALL (       6 calls)
     fftw         :      0.16s CPU      0.17s WALL (    1400 calls)

     Parallel routines

     PWSCF        :      1.80s CPU      1.82s WALL


   This run was terminated on:   0:48:16  19Sep2019            

=------------------------------------------------------------------------------=
   JOB DONE.
=------------------------------------------------------------------------------=
