6
Lattice="8.466835369021458 0.0 0.0 0.0 8.466835369021458 0.0 0.0 0.0 8.466835369021458" Properties=species:S:1:pos:R:3 Energy:=T 48.8273400=T pbc="T T T"
N        3.68940268       3.76268268       4.27372268
N        4.77743268       4.70416268       4.19312268
H        2.87350268       4.18312268       4.73242268
H        3.93592268       2.96739268       4.87339268
H        4.53091268       5.49944268       3.59344268
H        5.59333268       4.28371268       3.73442268
