
  ___ ___ ___ _ _ _  
 |   |   |_  | | | | 
 | | | | | . | | | | 
 |__ |  _|___|_____|  1.3.0
 |___|_|             

User:   efefer@efefer-X301A
Date:   Sat May 19 14:06:22 2018
Arch:   x86_64
Pid:    17296
Python: 3.6.5
gpaw:   /home/efefer/mysoftwares/anaconda3/lib/python3.6/site-packages/gpaw
_gpaw:  /home/efefer/mysoftwares/anaconda3/lib/python3.6/site-packages/
       _gpaw.cpython-36m-x86_64-linux-gnu.so
ase:    /home/efefer/mysoftwares/anaconda3/lib/python3.6/site-packages/ase-3.16.0-py3.6.egg/ase (version 3.16.0)
numpy:  /home/efefer/mysoftwares/anaconda3/lib/python3.6/site-packages/numpy (version 1.14.2)
scipy:  /home/efefer/mysoftwares/anaconda3/lib/python3.6/site-packages/scipy (version 1.0.0)
units:  Angstrom and eV
cores:  1

Input parameters:
  h: 0.2
  nbands: 5

System changes: positions, numbers, cell, pbc, initial_charges, initial_magmoms 

Initialize ...

C-setup:
  name: Carbon
  id: d60576a1f549371a163e72552ca58787
  Z: 6
  valence: 4
  core: 2
  charge: 0.0
  file: /home/efefer/WORKS/GPAW/gpaw-setups-0.9.11271/C.LDA.gz
  cutoffs: 0.64(comp), 1.14(filt), 1.14(core), lmax=2
  valence states:
                energy  radius
    2s(2.00)   -13.639   0.635
    2p(2.00)    -5.414   0.635
    *s          13.573   0.635
    *p          21.797   0.635
    *d           0.000   0.635

  Using partial waves for C as LCAO basis

O-setup:
  name: Oxygen
  id: 9b9d51c344dea68c822856295a461509
  Z: 8
  valence: 6
  core: 2
  charge: 0.0
  file: /home/efefer/WORKS/GPAW/gpaw-setups-0.9.11271/O.LDA.gz
  cutoffs: 0.67(comp), 1.17(filt), 0.83(core), lmax=2
  valence states:
                energy  radius
    2s(2.00)   -23.752   0.688
    2p(4.00)    -9.195   0.598
    *s           3.459   0.688
    *p          18.016   0.598
    *d           0.000   0.619

  Using partial waves for O as LCAO basis

Reference energy: -3046.710606

Spin-paired calculation

Occupation numbers:
  Fermi-Dirac: width=0.0000 eV

Convergence criteria:
  Maximum total energy change: 0.0005 eV / electron
  Maximum integral of absolute density change: 0.0001 electrons
  Maximum integral of absolute eigenstate change: 4e-08 eV^2
  Maximum number of iterations: 333

Symmetries present (total): 1

  ( 1  0  0)
  ( 0  1  0)
  ( 0  0  1)

1 k-point (Gamma)
1 k-point in the irreducible part of the Brillouin zone
       k-points in crystal coordinates                weights
   0:     0.00000000    0.00000000    0.00000000          1/1

Wave functions: Uniform real-space grid
  Kinetic energy operator: 6*3+1=19 point O(h^6) finite-difference Laplacian
  Eigensolver: None  MatrixOperator buffer_size: default value or 
                              see value of nblock in input file
Diagonalizer layout: Serial LAPACKOrthonormalizer layout: Serial LAPACK 

Davidson(niter=1, smin=None, normalize=True) 

Densities:
  Coarse grid: 24*24*24 grid
  Fine grid: 48*48*48 grid
  Total Charge: 0.000000 

Density mixing:
  Method: separate
  Backend: pulay
  Linear mixing parameter: 0.25
  Mixing with 3 old densities
  No damping of long wave oscillations 

Hamiltonian:
  XC and Coulomb potentials evaluated on a 48*48*48 grid
  Using the LDA Exchange-Correlation functional
  Interpolation: tri-quintic (5. degree polynomial)
  Poisson solver: Jacobi solver with 5 multi-grid levels
    Coarsest grid: 3 x 3 x 3 points
    Stencil: 6*3+1=19 point O(h^6) finite-difference Laplacian
    Max iterations: 1000
    Tolerance: 2.000000e-10 

Memory estimate:
  Process memory now: 54.96 MiB
  Calculator: 10.00 MiB
    Density: 4.31 MiB
      Arrays: 2.56 MiB
      Localized functions: 1.19 MiB
      Mixer: 0.56 MiB
    Hamiltonian: 3.69 MiB
      Arrays: 1.68 MiB
      XC: 0.00 MiB
      Poisson: 1.92 MiB
      vbar: 0.09 MiB
    Wavefunctions: 2.00 MiB
      Arrays psit_nG: 0.46 MiB
      Eigensolver: 0.93 MiB
      Projections: 0.00 MiB
      Projectors: 0.14 MiB
      Overlap op: 0.46 MiB

Total number of cores used: 1

Number of atoms: 2
Number of atomic orbitals: 8
Number of bands in calculation: 5
Bands to converge: occupied states only
Number of valence electrons: 10

... initialized

Initializing position-dependent things.

Density initialized from atomic densities
Creating initial wave functions:
  5 bands from LCAO basis set

    .-----------.  
   /|           |  
  / |           |  
 *  |           |  
 |  |           |  
 |  |  C  O     |  
 |  .-----------.  
 | /           /   
 |/           /    
 *-----------*     

Positions:
   0 C      1.950000    2.500000    2.500000
   1 O      3.050000    2.500000    2.500000

Unit cell:
           periodic     x           y           z      points  spacing
  1. axis:    no     5.000000    0.000000    0.000000    24     0.2083
  2. axis:    no     0.000000    5.000000    0.000000    24     0.2083
  3. axis:    no     0.000000    0.000000    5.000000    24     0.2083

  Lengths:   5.000000   5.000000   5.000000
  Angles:   90.000000  90.000000  90.000000

Effective grid spacing dv^(1/3) = 0.2083

                     log10-error:    total        iterations:
           time      wfs    density  energy       fermi  poisson
iter:   1  14:06:23  +1.88   +inf   -15.409004    0      15     
iter:   2  14:06:23  +1.39   +inf   -16.192954    0             
iter:   3  14:06:23  +0.85   +inf   -16.399528    0             
iter:   4  14:06:24  +0.71  -0.84   -15.506475    0      9      
iter:   5  14:06:24  +0.94  -1.06   -15.321567    0      9      
iter:   6  14:06:24  +0.96  -1.44   -15.396212    0      8      
iter:   7  14:06:25  +0.31  -1.87   -15.415332    0      7      
iter:   8  14:06:25  +0.09  -2.17   -15.429015    0      6      
iter:   9  14:06:25  -0.28  -2.24   -15.436489    0      6      
iter:  10  14:06:25  -0.48  -2.40   -15.441693    0      6      
iter:  11  14:06:25  -0.70  -2.46   -15.444826    0      7      
iter:  12  14:06:26  -1.04  -2.78   -15.446328    0      5      
iter:  13  14:06:26  -0.91  -3.07   -15.447677    0      4      
iter:  14  14:06:26  -1.51  -3.01   -15.448517    0      4      
iter:  15  14:06:26  -1.26  -2.92   -15.449328    0      4      
iter:  16  14:06:26  -1.73  -2.72   -15.449390    0      5      
iter:  17  14:06:27  -1.78  -2.84   -15.449563    0      4      
iter:  18  14:06:27  -2.08  -2.83   -15.449526    0      5      
iter:  19  14:06:27  -2.17  -2.96   -15.449761    0      4      
iter:  20  14:06:27  -2.04  -2.77   -15.449468    0      5      
iter:  21  14:06:27  -2.72  -3.20   -15.449485    0      5      
iter:  22  14:06:28  -2.64  -3.22   -15.449446    0      4      
iter:  23  14:06:28  -3.57  -3.44   -15.449422    0      4      
iter:  24  14:06:28  -3.64  -3.51   -15.449548    0      3      
iter:  25  14:06:28  -3.77  -3.74   -15.449540    0      3      
iter:  26  14:06:28  -3.57  -3.82   -15.449384    0      3      
iter:  27  14:06:28  -4.61  -4.21   -15.449382    0      2      
iter:  28  14:06:29  -4.70  -4.25   -15.449498    0      2      
iter:  29  14:06:29  -5.16  -4.40   -15.449513    0      2      
iter:  30  14:06:29  -5.12  -4.66   -15.449391    0      2      
iter:  31  14:06:29  -5.38  -4.90   -15.449531    0      1      
iter:  32  14:06:29  -5.62  -5.08   -15.449525    0      1      
iter:  33  14:06:29  -5.88  -5.15   -15.449472    0      1      
iter:  34  14:06:29  -5.91  -5.37   -15.449459    0      1      
iter:  35  14:06:29  -6.29  -5.50   -15.449436    0      1      
iter:  36  14:06:29  -6.29  -5.77   -15.449431    0      1      
iter:  37  14:06:30  -6.49  -5.85   -15.449454    0      1      
iter:  38  14:06:30  -6.73  -5.93   -15.449460    0      1      
iter:  39  14:06:30  -6.85  -5.69   -15.449456    0      1      
iter:  40  14:06:30  -7.08  -5.72   -15.449454    0      1      
iter:  41  14:06:30  -7.11  -5.54   -15.449463    0      1      
iter:  42  14:06:30  -7.36  -5.56   -15.449462    0      1      
iter:  43  14:06:30  -7.49  -5.56   -15.449476    0      1      

Converged after 43 iterations.

Dipole moment: (0.011683, 0.000000, 0.000000) |e|*Ang

Energy contributions relative to reference atoms: (reference = -3046.710606)

Kinetic:        +28.363039
Potential:      -30.303345
External:        +0.000000
XC:             -14.336934
Entropy (-ST):   +0.000000
Local:           +0.827764
--------------------------
Free energy:    -15.449476
Extrapolated:   -15.449476

 Band  Eigenvalues  Occupancy
    0    -29.05333    2.00000
    1    -13.62309    2.00000
    2    -11.83039    2.00000
    3    -11.83039    2.00000
    4     -8.33579    2.00000


Forces in eV/Ang:
  0 C    -2.51196   -0.00000   -0.00000
  1 O     3.36444   -0.00000   -0.00000

Writing to CO.gpw (mode='all')

Timing:                              incl.     excl.
-----------------------------------------------------------
Forces:                              0.012     0.012   0.1% |
Hamiltonian:                         0.402     0.000   0.0% |
 Atomic:                             0.039     0.001   0.0% |
  XC Correction:                     0.038     0.038   0.5% |
 Calculate atomic Hamiltonians:      0.001     0.001   0.0% |
 Communicate:                        0.000     0.000   0.0% |
 Hartree integrate/restrict:         0.001     0.001   0.0% |
 Initialize Hamiltonian:             0.003     0.003   0.0% |
 Poisson:                            0.320     0.320   3.9% |-|
 XC 3D grid:                         0.037     0.037   0.5% |
 vbar:                               0.001     0.001   0.0% |
LCAO initialization:                 0.098     0.088   1.1% |
 LCAO eigensolver:                   0.003     0.000   0.0% |
  Calculate projections:             0.000     0.000   0.0% |
  DenseAtomicCorrection:             0.000     0.000   0.0% |
  Distribute overlap matrix:         0.000     0.000   0.0% |
  Orbital Layouts:                   0.000     0.000   0.0% |
  Potential matrix:                  0.002     0.002   0.0% |
 LCAO to grid:                       0.001     0.001   0.0% |
 Set positions (LCAO WFS):           0.006     0.000   0.0% |
  Basic WFS set positions:           0.000     0.000   0.0% |
  Basis functions set positions:     0.000     0.000   0.0% |
  TCI: Calculate S, T, P:            0.005     0.005   0.1% |
SCF-cycle:                           6.832     0.020   0.2% |
 Davidson:                           0.374     0.206   2.5% ||
  calc. matrices:                    0.132     0.047   0.6% |
   Apply hamiltonian:                0.085     0.085   1.0% |
  diagonalize:                       0.005     0.005   0.1% |
  rotate_psi:                        0.031     0.031   0.4% |
 Density:                            0.146     0.001   0.0% |
  Atomic density matrices:           0.028     0.028   0.3% |
  Mix:                               0.099     0.099   1.2% |
  Multipole moments:                 0.007     0.007   0.1% |
  Pseudo density:                    0.011     0.010   0.1% |
   Symmetrize density:               0.001     0.001   0.0% |
 Hamiltonian:                        6.156     0.005   0.1% |
  Atomic:                            1.551     0.037   0.4% |
   XC Correction:                    1.515     1.515  18.6% |------|
  Calculate atomic Hamiltonians:     0.033     0.033   0.4% |
  Communicate:                       0.000     0.000   0.0% |
  Hartree integrate/restrict:        0.060     0.060   0.7% |
  Poisson:                           3.043     3.043  37.3% |--------------|
  XC 3D grid:                        1.448     1.448  17.7% |------|
  vbar:                              0.016     0.016   0.2% |
 Orthonormalize:                     0.001     0.000   0.0% |
  Band Layouts:                      0.000     0.000   0.0% |
   Inverse Cholesky:                 0.000     0.000   0.0% |
  calc_s_matrix:                     0.000     0.000   0.0% |
  projections:                       0.000     0.000   0.0% |
  rotate_psi:                        0.000     0.000   0.0% |
 Subspace diag:                      0.134     0.003   0.0% |
  Band Layouts:                      0.004     0.001   0.0% |
   Diagonalize:                      0.003     0.003   0.0% |
   Distribute results:               0.001     0.001   0.0% |
  calc_h_matrix:                     0.100     0.014   0.2% |
   Apply hamiltonian:                0.086     0.086   1.1% |
  rotate_psi:                        0.027     0.027   0.3% |
Set symmetry:                        0.000     0.000   0.0% |
Other:                               0.818     0.818  10.0% |---|
-----------------------------------------------------------
Total:                                         8.163 100.0%

Memory usage: 74.82 MiB
Date: Sat May 19 14:06:30 2018
