
  ___ ___ ___ _ _ _  
 |   |   |_  | | | | 
 | | | | | . | | | | 
 |__ |  _|___|_____|  1.3.0
 |___|_|             

User:   efefer@efefer-X301A
Date:   Thu Dec 13 23:03:40 2018
Arch:   x86_64
Pid:    13277
Python: 3.6.6
gpaw:   /home/efefer/mysoftwares/anaconda3/lib/python3.6/site-packages/gpaw
_gpaw:  /home/efefer/mysoftwares/anaconda3/lib/python3.6/site-packages/
       _gpaw.cpython-36m-x86_64-linux-gnu.so
ase:    /home/efefer/mysoftwares/anaconda3/lib/python3.6/site-packages/ase-3.16.0-py3.6.egg/ase (version 3.16.0)
numpy:  /home/efefer/mysoftwares/anaconda3/lib/python3.6/site-packages/numpy (version 1.15.1)
scipy:  /home/efefer/mysoftwares/anaconda3/lib/python3.6/site-packages/scipy (version 1.1.0)
units:  Angstrom and eV
cores:  1

Input parameters:
  eigensolver: rmm-diis
  mode: {ecut: 408.17079036550865,
         name: pw}
  occupations: {fixmagmom: True,
                name: fermi-dirac,
                width: 0.0}
  setups: hgh
  spinpol: False

System changes: positions, numbers, cell, pbc, initial_charges, initial_magmoms 

Initialize ...

HGH setup for H
    Valence Z=1, rloc=0.20000
    Local part coeffs: -4.18024, 0.72508
    Projectors:
        l=0, rc=0.01000
    Diagonal coefficients of nonlocal parts:
        l=0:  0.00000

  LCAO basis set for H:
    Name: atompaw.sz
    This basis set was not loaded from a file
    Number of radial functions: 1
    Number of spherical harmonics: 1
      l=0, rc=8.9500 Bohr: s0 e=-0.233 f=1.000

Reference energy: 0.000000

Spin-paired calculation

Occupation numbers:
  Fixed magnetic moment
  Fermi-Dirac: width=0.0000 eV

Convergence criteria:
  Maximum total energy change: 0.0005 eV / electron
  Maximum integral of absolute density change: 0.0001 electrons
  Maximum integral of absolute eigenstate change: 4e-08 eV^2
  Maximum number of iterations: 333

Symmetries present (total): 1

  ( 1  0  0)
  ( 0  1  0)
  ( 0  0  1)

1 k-point (Gamma)
1 k-point in the irreducible part of the Brillouin zone
       k-points in crystal coordinates                weights
   0:     0.00000000    0.00000000    0.00000000          1/1

Wave functions: Plane wave expansion
  Cutoff energy: 408.171 eV
  Number of coefficients: 11363 (reduced to 5682)
  Using FFTW library
  Eigensolver: None  MatrixOperator buffer_size: default value or 
                              see value of nblock in input file
Diagonalizer layout: Serial LAPACKOrthonormalizer layout: Serial LAPACK 

RMM-DIIS eigensolver
       keep_htpsit: True
       Block size: 10
       DIIS iterations: 3
       Threshold for DIIS: 1.0e-16
       Limit lambda: False
       use_rayleigh: False
       trial_step: 0.1 

Densities:
  Coarse grid: 40*40*40 grid
  Fine grid: 80*80*80 grid
  Total Charge: 0.000000 

Density mixing:
  Method: separate
  Backend: pulay
  Linear mixing parameter: 0.05
  Mixing with 5 old densities
  Damping of long wave oscillations: 50 

Hamiltonian:
  XC and Coulomb potentials evaluated on a 80*80*80 grid
  Using the LDA Exchange-Correlation functional
 

Memory estimate:
  Process memory now: 80.94 MiB
  Calculator: 30.53 MiB
    Density: 19.88 MiB
      Arrays: 12.70 MiB
      Localized functions: 2.30 MiB
      Mixer: 4.88 MiB
    Hamiltonian: 8.56 MiB
      Arrays: 8.30 MiB
      XC: 0.00 MiB
      Poisson: 0.00 MiB
      vbar: 0.25 MiB
    Wavefunctions: 2.10 MiB
      Arrays psit_nG: 0.09 MiB
      Eigensolver: 0.52 MiB
      Projections: 0.00 MiB
      Projectors: 0.09 MiB
      Overlap op: 0.09 MiB
      PW-descriptor: 1.32 MiB

Total number of cores used: 1

Number of atoms: 1
Number of atomic orbitals: 1
Number of bands in calculation: 1
Bands to converge: occupied states only
Number of valence electrons: 1

... initialized

Initializing position-dependent things.

Density initialized from atomic densities
Creating initial wave functions:
  1 band from LCAO basis set

      .--------------------.  
     /|                    |  
    / |                    |  
   /  |                    |  
  /   |                    |  
 *    |                    |  
 |    |                    |  
 |    |       H            |  
 |    |                    |  
 |    |                    |  
 |    .--------------------.  
 |   /                    /   
 |  /                    /    
 | /                    /     
 |/                    /      
 *--------------------*       

Positions:
   0 H      4.233418    4.233418    4.233418

Unit cell:
           periodic     x           y           z      points  spacing
  1. axis:    no     8.466835    0.000000    0.000000    40     0.2117
  2. axis:    no     0.000000    8.466835    0.000000    40     0.2117
  3. axis:    no     0.000000    0.000000    8.466835    40     0.2117

  Lengths:   8.466835   8.466835   8.466835
  Angles:   90.000000  90.000000  90.000000

Effective grid spacing dv^(1/3) = 0.2117

                     log10-error:    total        iterations:
           time      wfs    density  energy       fermi  poisson
iter:   1  23:03:43  +0.37   +inf   -11.964790    0             
iter:   2  23:03:43  -2.64   +inf   -11.974713    0             
iter:   3  23:03:43  -4.11   +inf   -11.974831    0             
iter:   4  23:03:43  -4.97  -1.52   -11.975239    0             
iter:   5  23:03:44  -2.41  -1.54   -11.980095    0             
iter:   6  23:03:44  -4.20  -2.38   -11.980264    0             
iter:   7  23:03:45  -3.94  -2.35   -11.980380    0             
iter:   8  23:03:45  -3.65  -2.02   -11.980301    0             
iter:   9  23:03:46  -5.52  -3.08   -11.980315    0             
iter:  10  23:03:46  -7.41  -3.06   -11.980315    0             
iter:  11  23:03:47  -5.55  -3.04   -11.980315    0             
iter:  12  23:03:47  -7.20  -3.72   -11.980315    0             
iter:  13  23:03:48  -8.73  -4.19   -11.980315    0             

Converged after 13 iterations.

Dipole moment: (-0.000000, -0.000000, -0.000000) |e|*Ang

Energy contributions relative to reference atoms: (reference = 0.000000)

Kinetic:        +10.957205
Potential:      -15.727595
External:        +0.000000
XC:              -6.233725
Entropy (-ST):   +0.000000
Local:           -0.976200
--------------------------
Free energy:    -11.980315
Extrapolated:   -11.980315

Fermi levels: -6.23176, -6.23176

 Band  Eigenvalues  Occupancy
    0     -6.23176    1.00000

Writing to H.gpw (mode='')

