
  ___ ___ ___ _ _ _  
 |   |   |_  | | | | 
 | | | | | . | | | | 
 |__ |  _|___|_____|  1.3.0
 |___|_|             

User:   efefer@efefer-X301A
Date:   Thu Dec 13 23:03:48 2018
Arch:   x86_64
Pid:    13277
Python: 3.6.6
gpaw:   /home/efefer/mysoftwares/anaconda3/lib/python3.6/site-packages/gpaw
_gpaw:  /home/efefer/mysoftwares/anaconda3/lib/python3.6/site-packages/
       _gpaw.cpython-36m-x86_64-linux-gnu.so
ase:    /home/efefer/mysoftwares/anaconda3/lib/python3.6/site-packages/ase-3.16.0-py3.6.egg/ase (version 3.16.0)
numpy:  /home/efefer/mysoftwares/anaconda3/lib/python3.6/site-packages/numpy (version 1.15.1)
scipy:  /home/efefer/mysoftwares/anaconda3/lib/python3.6/site-packages/scipy (version 1.1.0)
units:  Angstrom and eV
cores:  1

System changes: positions, numbers, initial_magmoms, initial_charges 

Initialize ...

HGH setup for H
    Valence Z=1, rloc=0.20000
    Local part coeffs: -4.18024, 0.72508
    Projectors:
        l=0, rc=0.01000
    Diagonal coefficients of nonlocal parts:
        l=0:  0.00000

  LCAO basis set for H:
    Name: atompaw.sz
    This basis set was not loaded from a file
    Number of radial functions: 1
    Number of spherical harmonics: 1
      l=0, rc=8.9500 Bohr: s0 e=-0.233 f=1.000

Reference energy: 0.000000

Spin-paired calculation

Occupation numbers:
  Fixed magnetic moment
  Fermi-Dirac: width=0.0000 eV

Convergence criteria:
  Maximum total energy change: 0.0005 eV / electron
  Maximum integral of absolute density change: 0.0001 electrons
  Maximum integral of absolute eigenstate change: 4e-08 eV^2
  Maximum number of iterations: 333

Symmetries present (total): 1

  ( 1  0  0)
  ( 0  1  0)
  ( 0  0  1)

1 k-point (Gamma)
1 k-point in the irreducible part of the Brillouin zone
       k-points in crystal coordinates                weights
   0:     0.00000000    0.00000000    0.00000000          1/1

Wave functions: Plane wave expansion
  Cutoff energy: 408.171 eV
  Number of coefficients: 11363 (reduced to 5682)
  Using FFTW library
  Eigensolver: None  MatrixOperator buffer_size: default value or 
                              see value of nblock in input file
Diagonalizer layout: Serial LAPACKOrthonormalizer layout: Serial LAPACK 

RMM-DIIS eigensolver
       keep_htpsit: True
       Block size: 10
       DIIS iterations: 3
       Threshold for DIIS: 1.0e-16
       Limit lambda: False
       use_rayleigh: False
       trial_step: 0.1 

Densities:
  Coarse grid: 40*40*40 grid
  Fine grid: 80*80*80 grid
  Total Charge: 0.000000 

Density mixing:
  Method: separate
  Backend: pulay
  Linear mixing parameter: 0.05
  Mixing with 5 old densities
  Damping of long wave oscillations: 50 

Hamiltonian:
  XC and Coulomb potentials evaluated on a 80*80*80 grid
  Using the LDA Exchange-Correlation functional
 

Memory estimate:
  Process memory now: 105.15 MiB
  Calculator: 30.79 MiB
    Density: 19.88 MiB
      Arrays: 12.70 MiB
      Localized functions: 2.30 MiB
      Mixer: 4.88 MiB
    Hamiltonian: 8.56 MiB
      Arrays: 8.30 MiB
      XC: 0.00 MiB
      Poisson: 0.00 MiB
      vbar: 0.25 MiB
    Wavefunctions: 2.36 MiB
      Arrays psit_nG: 0.17 MiB
      Eigensolver: 0.61 MiB
      Projections: 0.00 MiB
      Projectors: 0.09 MiB
      Overlap op: 0.17 MiB
      PW-descriptor: 1.32 MiB

Total number of cores used: 1

Number of atoms: 2
Number of atomic orbitals: 2
Number of bands in calculation: 2
Bands to converge: occupied states only
Number of valence electrons: 2

... initialized

Initializing position-dependent things.

Density initialized from atomic densities
Creating initial wave functions:
  2 bands from LCAO basis set

      .--------------------.  
     /|                    |  
    / |                    |  
   /  |                    |  
  /   |                    |  
 *    |                    |  
 |    |                    |  
 |    |      H H           |  
 |    |                    |  
 |    |                    |  
 |    .--------------------.  
 |   /                    /   
 |  /                    /    
 | /                    /     
 |/                    /      
 *--------------------*       

Positions:
   0 H      3.863418    4.233418    4.233418
   1 H      4.603418    4.233418    4.233418

Unit cell:
           periodic     x           y           z      points  spacing
  1. axis:    no     8.466835    0.000000    0.000000    40     0.2117
  2. axis:    no     0.000000    8.466835    0.000000    40     0.2117
  3. axis:    no     0.000000    0.000000    8.466835    40     0.2117

  Lengths:   8.466835   8.466835   8.466835
  Angles:   90.000000  90.000000  90.000000

Effective grid spacing dv^(1/3) = 0.2117

                     log10-error:    total        iterations:
           time      wfs    density  energy       fermi  poisson
iter:   1  23:03:50  +2.24   +inf   -28.566778    0             
iter:   2  23:03:50  +0.26   +inf   -31.062142    0             
iter:   3  23:03:50  -2.27   +inf   -31.111376    0             
iter:   4  23:03:51  -2.15  -0.39   -31.028387    0             
iter:   5  23:03:51  +0.30  -0.41   -30.275617    0             
iter:   6  23:03:52  -1.64  -1.69   -30.432865    0             
iter:   7  23:03:52  -0.93  -1.38   -30.430971    0             
iter:   8  23:03:53  -1.40  -1.27   -30.425645    0             
iter:   9  23:03:53  -3.49  -2.61   -30.428732    0             
iter:  10  23:03:53  -5.41  -2.51   -30.428743    0             
iter:  11  23:03:54  -4.22  -2.57   -30.428735    0             
iter:  12  23:03:54  -5.89  -3.57   -30.428739    0             
iter:  13  23:03:55  -6.68  -4.03   -30.428739    0             
iter:  14  23:03:55  -7.30  -4.24   -30.428739    0             
iter:  15  23:03:56  -7.94  -4.34   -30.428739    0             

Converged after 15 iterations.

Dipole moment: (0.000000, -0.000000, -0.000000) |e|*Ang

Energy contributions relative to reference atoms: (reference = 0.000000)

Kinetic:        +28.654493
Potential:      -38.203977
External:        +0.000000
XC:             -17.577037
Entropy (-ST):   +0.000000
Local:           -3.302219
--------------------------
Free energy:    -30.428739
Extrapolated:   -30.428739

Fermi levels: -4.75408, -4.75408

 Band  Eigenvalues  Occupancy
    0    -10.09739    2.00000
    1      0.58923    0.00000

Writing to H2.gpw (mode='')

Timing:                              incl.     excl.
-----------------------------------------------------------
Hamiltonian:                         0.599     0.006   0.0% |
 Atomic:                             0.002     0.002   0.0% |
  XC Correction:                     0.000     0.000   0.0% |
 Calculate atomic Hamiltonians:      0.197     0.197   1.3% ||
 Communicate:                        0.000     0.000   0.0% |
 Initialize Hamiltonian:             0.002     0.002   0.0% |
 Poisson:                            0.010     0.010   0.1% |
 XC 3D grid:                         0.382     0.382   2.5% ||
LCAO initialization:                 0.043     0.007   0.0% |
 LCAO eigensolver:                   0.003     0.000   0.0% |
  Calculate projections:             0.000     0.000   0.0% |
  DenseAtomicCorrection:             0.000     0.000   0.0% |
  Distribute overlap matrix:         0.000     0.000   0.0% |
  Orbital Layouts:                   0.000     0.000   0.0% |
  Potential matrix:                  0.002     0.002   0.0% |
 LCAO to grid:                       0.004     0.004   0.0% |
 Set positions (LCAO WFS):           0.028     0.000   0.0% |
  Basic WFS set positions:           0.000     0.000   0.0% |
  Basis functions set positions:     0.000     0.000   0.0% |
  TCI: Calculate S, T, P:            0.027     0.027   0.2% |
PWDescriptor:                        0.013     0.013   0.1% |
SCF-cycle:                          10.312     0.009   0.1% |
 Density:                            2.725     0.001   0.0% |
  Atomic density matrices:           0.014     0.014   0.1% |
  Mix:                               2.646     2.646  17.3% |------|
  Multipole moments:                 0.004     0.004   0.0% |
  Pseudo density:                    0.061     0.061   0.4% |
   Symmetrize density:               0.000     0.000   0.0% |
 Hamiltonian:                        6.563     0.057   0.4% |
  Atomic:                            0.020     0.020   0.1% |
   XC Correction:                    0.001     0.001   0.0% |
  Calculate atomic Hamiltonians:     2.190     2.190  14.3% |-----|
  Communicate:                       0.000     0.000   0.0% |
  Poisson:                           0.100     0.100   0.7% |
  XC 3D grid:                        4.195     4.195  27.4% |----------|
 Orthonormalize:                     0.101     0.001   0.0% |
  Band Layouts:                      0.001     0.000   0.0% |
   Inverse Cholesky:                 0.001     0.001   0.0% |
  calc_s_matrix:                     0.005     0.005   0.0% |
  projections:                       0.090     0.090   0.6% |
  rotate_psi:                        0.003     0.003   0.0% |
 RMM-DIIS:                           0.794     0.115   0.7% |
  Calculate residuals:               0.168     0.168   1.1% |
  DIIS step:                         0.335     0.006   0.0% |
   Calculate residuals:              0.273     0.273   1.8% ||
   Construct matrix:                 0.009     0.009   0.1% |
   Linear solve:                     0.002     0.002   0.0% |
   Update trial vectors:             0.007     0.007   0.0% |
   precondition:                     0.038     0.038   0.2% |
  Find lambda:                       0.009     0.009   0.1% |
  Update psi:                        0.004     0.004   0.0% |
  precondition:                      0.079     0.079   0.5% |
  projections:                       0.084     0.084   0.5% |
 Subspace diag:                      0.120     0.002   0.0% |
  Band Layouts:                      0.002     0.000   0.0% |
   Diagonalize:                      0.001     0.001   0.0% |
   Distribute results:               0.000     0.000   0.0% |
  calc_h_matrix:                     0.110     0.110   0.7% |
  rotate_psi:                        0.006     0.006   0.0% |
Set symmetry:                        0.001     0.001   0.0% |
Other:                               4.366     4.366  28.5% |----------|
-----------------------------------------------------------
Total:                                        15.333 100.0%

Memory usage: 112.27 MiB
Date: Thu Dec 13 23:03:56 2018
